[Molden Format]
made by pyscf v[2.0.1]
[Atoms] (AU)
O   1   8     0.00000000000000     0.00000000000000     0.00000000000000
[GTO]
1 0
 s    6 1.00
             5484.6717   0.001831099805527
             825.23495   0.013950098518422
             188.04696    0.06844509273075
               52.9645    0.23271427528445
              16.89757    0.47019295006289
             5.7996353    0.35852086192309
 s    3 1.00
             15.539616   -0.11077750382508
             3.5999336   -0.14802630511126
             1.0137618     1.1307670390447
 s    1 1.00
             0.2700058                   1
 p    3 1.00
             15.539616   0.070874299543311
             3.5999336    0.33975279781076
             1.0137618    0.72715859531445
 p    1 1.00
             0.2700058                   1

[5d]
[7f]
[9g]

[MO]
 Sym= s+0
 Ene=               0
 Spin= Alpha
 Occup=    1.00000
   1      -1.0027000290883
   2    -0.0028306587107098
   3     0.021159322774945
   4    2.9700660532987e-19
   5    -1.4515502704776e-18
   6    2.8389546454711e-20
   7    -5.0432181651135e-21
   8    -2.8162801170443e-19
   9    -3.1862567540664e-20
 Sym= s+0
 Ene=               1
 Spin= Alpha
 Occup=    1.00000
   1     -0.20214985459619
   2      0.55348934247665
   3       0.5365049829804
   4    -5.505930717068e-19
   5    5.1751120272905e-19
   6    8.6066700906482e-21
   7    -2.0934330481873e-19
   8    2.2154634531957e-20
   9    -7.1194916169116e-21
 Sym= p+0
 Ene=               2
 Spin= Alpha
 Occup=    1.00000
   1    4.0079616310544e-19
   2    3.5031683788424e-20
   3    6.5630742285158e-20
   4    -2.492643223273e-15
   5    -4.967171541355e-16
   6     -0.67820534314511
   7    -1.5661312885634e-15
   8    -1.37979492092e-16
   9     -0.46963675194388
 Sym= p+1
 Ene=               3
 Spin= Alpha
 Occup=    1.00000
   1    3.0615815089571e-19
   2    -9.9406382276148e-20
   3    2.2664279012496e-19
   4      0.71167115529203
   5    -7.2092819785804e-16
   6    -2.1276221581701e-15
   7      0.43106348471809
   8    -2.3827119718218e-17
   9    -1.4183483771778e-15
 Sym= p-1
 Ene=               4
 Spin= Alpha
 Occup=    1.00000
   1    -1.4528651586371e-18
   2    1.9882032334726e-19
   3    -7.5786164267653e-19
   4    -9.9681142621207e-16
   5      0.71167115529203
   6    6.1608395086825e-17
   7    -2.1368413313325e-16
   8      0.43106348471809
   9    -1.1529119261815e-16
