[Molden Format]
made by pyscf v[2.0.1]
[Atoms] (AU)
C   1   6    -4.12961850001203    -2.83585530335105     1.25236118699788
N   2   7    -5.28461910734620    -4.81916066560458     2.39246886274435
C   3   6    -4.67215887037466    -2.09228586785719    -1.26703302062901
C   4   6    -6.47851027832391    -3.51116783122562    -2.63972062888244
C   5   6    -7.66431342148849    -5.59604597267452    -1.46340013141093
C   6   6    -6.99829834614678    -6.16472125533988     1.06145538471595
H   7   1    -7.84727670486888    -7.75643757006103     2.04052626930535
H   8   1    -9.01406920322033    -6.76686358767129    -2.46849254473560
H   9   1    -6.91777711597906    -3.02133192247711    -4.58309607812391
H   10   1    -3.77695781064570    -0.40651599419031    -2.06690684600428
H   11   1    -2.82948692631127    -1.75592217658911     2.41503219267166
Fe   12   26    -8.09309227915230    -2.24809378682758     0.68987475739047
[GTO]
1 0
 s    6 1.00
             3047.5249  0.0018347001629433
             457.36951    0.01403730124668
             103.94869   0.068842606114048
             29.210155    0.23218442062076
              9.286663    0.46794134155879
              3.163927    0.36231203217765
 s    3 1.00
             7.8682724   -0.11933240861517
             1.8812885   -0.16085421161283
             0.5442493     1.1434564825515
 s    1 1.00
             0.1687144                   1
 p    3 1.00
             7.8682724   0.068999095584993
             1.8812885    0.31642397975315
             0.5442493    0.74430825237435
 p    1 1.00
             0.1687144                   1

2 0
 s    6 1.00
              4173.511  0.0018347994430301
              627.4579   0.013994995751693
              142.9021   0.068586979179805
              40.23433    0.23224092950117
              12.82021    0.46906985760962
              4.390437    0.36045489058067
 s    3 1.00
             11.626358   -0.11496102288211
               2.71628   -0.16911803366165
              0.772218     1.1458522280731
 s    1 1.00
             0.2120313                   1
 p    3 1.00
             11.626358   0.067580023248036
               2.71628    0.32390711142648
              0.772218    0.74089525487354
 p    1 1.00
             0.2120313                   1

3 0
 s    6 1.00
             3047.5249  0.0018347001629433
             457.36951    0.01403730124668
             103.94869   0.068842606114048
             29.210155    0.23218442062076
              9.286663    0.46794134155879
              3.163927    0.36231203217765
 s    3 1.00
             7.8682724   -0.11933240861517
             1.8812885   -0.16085421161283
             0.5442493     1.1434564825515
 s    1 1.00
             0.1687144                   1
 p    3 1.00
             7.8682724   0.068999095584993
             1.8812885    0.31642397975315
             0.5442493    0.74430825237435
 p    1 1.00
             0.1687144                   1

4 0
 s    6 1.00
             3047.5249  0.0018347001629433
             457.36951    0.01403730124668
             103.94869   0.068842606114048
             29.210155    0.23218442062076
              9.286663    0.46794134155879
              3.163927    0.36231203217765
 s    3 1.00
             7.8682724   -0.11933240861517
             1.8812885   -0.16085421161283
             0.5442493     1.1434564825515
 s    1 1.00
             0.1687144                   1
 p    3 1.00
             7.8682724   0.068999095584993
             1.8812885    0.31642397975315
             0.5442493    0.74430825237435
 p    1 1.00
             0.1687144                   1

5 0
 s    6 1.00
             3047.5249  0.0018347001629433
             457.36951    0.01403730124668
             103.94869   0.068842606114048
             29.210155    0.23218442062076
              9.286663    0.46794134155879
              3.163927    0.36231203217765
 s    3 1.00
             7.8682724   -0.11933240861517
             1.8812885   -0.16085421161283
             0.5442493     1.1434564825515
 s    1 1.00
             0.1687144                   1
 p    3 1.00
             7.8682724   0.068999095584993
             1.8812885    0.31642397975315
             0.5442493    0.74430825237435
 p    1 1.00
             0.1687144                   1

6 0
 s    6 1.00
             3047.5249  0.0018347001629433
             457.36951    0.01403730124668
             103.94869   0.068842606114048
             29.210155    0.23218442062076
              9.286663    0.46794134155879
              3.163927    0.36231203217765
 s    3 1.00
             7.8682724   -0.11933240861517
             1.8812885   -0.16085421161283
             0.5442493     1.1434564825515
 s    1 1.00
             0.1687144                   1
 p    3 1.00
             7.8682724   0.068999095584993
             1.8812885    0.31642397975315
             0.5442493    0.74430825237435
 p    1 1.00
             0.1687144                   1

7 0
 s    3 1.00
             18.731137    0.03349459952309
             2.8253937    0.23472694665786
             0.6401217    0.81375731841339
 s    1 1.00
             0.1612778                   1

8 0
 s    3 1.00
             18.731137    0.03349459952309
             2.8253937    0.23472694665786
             0.6401217    0.81375731841339
 s    1 1.00
             0.1612778                   1

9 0
 s    3 1.00
             18.731137    0.03349459952309
             2.8253937    0.23472694665786
             0.6401217    0.81375731841339
 s    1 1.00
             0.1612778                   1

10 0
 s    3 1.00
             18.731137    0.03349459952309
             2.8253937    0.23472694665786
             0.6401217    0.81375731841339
 s    1 1.00
             0.1612778                   1

11 0
 s    3 1.00
             18.731137    0.03349459952309
             2.8253937    0.23472694665786
             0.6401217    0.81375731841339
 s    1 1.00
             0.1612778                   1

12 0
 s    6 1.00
              61132.62  0.0017661109761772
              9179.342   0.013530379817491
              2090.857   0.066731279099873
              589.2479    0.23148229687757
              188.7543    0.47970579352933
              64.44629    0.35019759527624
 s    6 1.00
               1259.98   0.002438014026839
              299.8761   0.032240480354921
              96.84917    0.12657240139338
               36.3102  -0.031399020345658
              14.72996   -0.62075930683366
              6.066075   -0.45029140495706
 s    6 1.00
              50.43485  -0.0038732559842369
              16.83929   0.071965979707118
              7.192086    0.25565909895954
               3.05342   -0.28828369882676
              1.273643   -0.73428219701167
              0.504091   -0.20493529916597
 s    3 1.00
              1.950316   0.056948690305124
              0.736721    0.28829150154463
              0.114177    -1.1381590060981
 s    1 1.00
              0.041148                   1
 p    6 1.00
               1259.98  0.0040280186654072
              299.8761   0.031446467387857
              96.84917    0.13683168863389
               36.3102    0.34872357103281
              14.72996    0.46179306164054
              6.066075    0.20430578302906
 p    6 1.00
              50.43485  -0.0070171278804837
              16.83929  -0.028776599509875
              7.192086   0.061813828947182
               3.05342     0.3954945932639
              1.273643    0.49890589150259
              0.504091    0.17912509694913
 p    3 1.00
              1.950316   -0.45937961634956
              0.736721    0.28521391015091
              0.114177    0.90764853230368
 p    1 1.00
              0.041148                   1
 d    3 1.00
              23.14994   0.088769354792419
              6.122368    0.38963192103518
              1.846601    0.70148163787111
 d    1 1.00
              0.504361                   1

[5d]
[7f]
[9g]

[MO]
 Sym= A
 Ene=               0
 Spin= Alpha
 Occup=    1.00000
   1    0.00078972244094043
   2    -0.0011074224045501
   3    -5.4269087455115e-05
   4     0.001669724135821
   5    -0.0016334523147546
   6    0.0021435576893213
   7    0.00070320002188101
   8    -0.00046059916418448
   9    7.4324408377494e-05
  10    -0.0017807686794672
  11    0.00091649214870492
  12    -0.00015260887253015
  13    0.00044394100161813
  14    -0.0014498151071302
  15    -0.0030971846063446
  16    0.0003924314606857
  17    -0.0010071268679568
  18    -0.0020113033886161
  19    -0.00052477791848019
  20    -0.00070818678938287
  21    -0.0033297044613995
  22    -0.0005366381905486
  23    -0.00068763144869293
  24    -0.0030252230950979
  25    0.00080985981340385
  26    0.00094664816223842
  27    -0.0021183796700479
  28    0.0016101492806854
  29    -0.0024017728409326
  30    -0.00023426172473911
  31    0.0020787262127218
  32    -0.0012569535003009
  33    0.0050081499493588
  34    0.0017481040532289
  35    -0.001381917614493
  36    0.0052948000417007
  37    -0.00082851257883323
  38    -0.00029019197857442
  39    -0.0022514659857878
  40    -5.2874855564302e-05
  41    -7.8677728155299e-05
  42    -0.0027353472589125
  43    -0.0014657104744752
  44    -0.0011789682955948
  45    -0.002256648850872
  46    0.00094824455316424
  47    -0.00094390815975686
  48    -0.0012414332431389
  49    0.0031982986484618
  50    -0.00019559251413328
  51    0.0018426401603314
  52    0.0014150351108661
  53    -0.0002358688581662
  54    -0.00049699335506752
  55    -0.00043171729548836
  56    0.00028958593719878
  57    0.0009172409645971
  58    -7.6781884441036e-05
  59    -0.0041364143249021
  60    -0.0007748517469677
  61    6.5438503380627e-05
  62    -0.00029535341462462
  63    0.00064017349171217
  64    0.00067036156135076
  65      0.56653758626622
  66      0.96783628235166
  67     -0.76974635265362
  68    0.0020436607985871
  69     0.001014349423839
  70    0.00020496180071493
  71    -9.2407096358505e-05
  72    -0.00042466228978144
  73    -0.0011554802459194
  74    0.00089764968506963
  75    0.0012512470885837
  76    0.00037141717722883
  77    -0.00029982318715023
  78    -0.00029560998542819
  79    0.00015482971955575
  80    -9.9565909034861e-05
  81    -0.00011466262208868
  82    0.0011519225218138
  83    0.0018809344556463
  84    0.0021649949967421
  85    0.0010906548638988
  86    -0.0014751538352499
  87    0.0013374458280189
  88    0.0017185215387214
  89    0.0010137661180539
  90    0.00048053929745279
  91    0.00016369009449976
 Sym= A
 Ene=               1
 Spin= Alpha
 Occup=    1.00000
   1    -0.00049986968231018
   2    0.00061562352363943
   3    -0.0048135940814851
   4    -0.0052704815070454
   5    -0.0027473173938954
   6    -0.0013463381018597
   7    -0.0016100673688912
   8    -0.00078480493382742
   9    -0.00078610412699998
  10    0.00086478402834632
  11    -6.3833389007407e-05
  12     0.001885304666958
  13    -0.00085737505010218
  14    0.0031265872796741
  15     -0.00462739400834
  16    -0.00099208469351179
  17    0.0021206401088288
  18    -0.0033259683158819
  19    0.00080974515315617
  20    -0.0021596828285483
  21    0.0013168622911039
  22    -0.0030108089437586
  23    0.0005372522558522
  24    0.0041386327721968
  25    -0.0022402598490383
  26    -9.3795857624398e-05
  27    0.0022308752685792
  28    8.3558020764556e-05
  29    -0.0012745560804592
  30    -0.0047067283571508
  31    -0.0042627699306987
  32    -0.00041885749145699
  33    0.0052312863035263
  34    -0.0019239420734443
  35    -0.00018104253414836
  36    0.00063718617140214
  37    0.00054663784718022
  38    -0.0013942262695951
  39    0.0011765062219034
  40    0.00074389572391569
  41    0.0049936830413565
  42    0.0015797721387581
  43    0.0017348395734551
  44    0.0035300057880139
  45    0.0021064043318727
  46    -0.00047815966761564
  47    0.00051234344171858
  48    -0.0041999464697772
  49    -0.00013726098444005
  50    0.0016273664612996
  51    0.0006396586946822
  52    -0.0010751787005521
  53    -0.0012037126351087
  54    0.0011424651514943
  55    0.00019998934968646
  56    0.00044157752844107
  57    -0.0024246747401742
  58    6.0098463888291e-05
  59    -0.0025778912642825
  60    -0.00090046418574006
  61    -0.001552411830528
  62    -3.7771672260542e-05
  63    -0.0025787592279015
  64    -0.00020732603280864
  65    -6.2306134621634e-05
  66    -0.00047380509314061
  67    0.0023141018745057
  68    -0.0044421293915228
  69    -0.00085905327610497
  70      0.20931396106845
  71     -0.26604769432738
  72      0.80496022867081
  73     -0.20818242647966
  74      0.26430920405031
  75      -0.7988144236333
  76    0.0014932066101855
  77    -0.0011159525447521
  78    -0.0015743489042003
  79    -0.00046354862563849
  80    0.00044555398558621
  81    -9.3088310342889e-05
  82    -0.0033002368165786
  83    0.00077440486951448
  84    -0.002715724866028
  85    -0.00045669697321704
  86    -0.0011632050866778
  87    -0.0012114210095947
  88    -0.00052177935846815
  89    -0.00092921784122167
  90    -0.00012278134157216
  91    -0.00067924861413666
 Sym= A
 Ene=               2
 Spin= Alpha
 Occup=    1.00000
   1    0.0001249722313775
   2     -0.00167492322044
   3    -0.0033033251319493
   4    -0.0008943275017239
   5    0.0033195511437579
   6    0.00058087101911852
   7    0.00096866940189408
   8    0.0016478220927443
   9    0.0026740743521506
  10    0.00029302649839946
  11    -0.00075236825266967
  12    0.0023037677129887
  13    -0.0017337376091552
  14    -0.0035403945535701
  15    -0.00045722771803876
  16    -0.001439778499238
  17    -0.0019336748637274
  18    -0.0013401442694339
  19    0.00044645873420213
  20    -0.0023288178789513
  21    0.0053552718476447
  22    -0.0041322784353108
  23    0.00099019400219531
  24    0.0018769646839554
  25    -0.0044504909514901
  26    -0.0018078794627204
  27    0.0024255807308081
  28    -0.00021992919041891
  29    0.00047238634201358
  30    -0.0046612309107895
  31    -0.00078553476478592
  32    -0.0001057601425411
  33    0.00054100493243849
  34    -0.0011756553779862
  35    7.7843835430125e-05
  36    -0.0021746056858488
  37    -0.0001991357791482
  38    0.0011169055719467
  39     0.003031650801854
  40    0.0020981395613084
  41    -0.002363370117589
  42    -0.00061184041166857
  43    0.0020644054145763
  44    -0.00026181977439627
  45    0.00068433947340012
  46    -0.00037015987771158
  47    0.0024899054887708
  48    -0.0033314616418815
  49    0.0037163600060278
  50    -0.00079252572918155
  51    -0.001235297954487
  52    0.0011991922204361
  53    -0.0021342828295954
  54    -0.00083855915722006
  55    -0.00027942096767509
  56    -0.00030984457002454
  57    0.00077313268276654
  58    0.00079910736705999
  59    -0.00014593554038589
  60    -0.00053511491754505
  61    -0.0016579279479155
  62    -2.3154155968423e-05
  63    0.00030264482731983
  64    -0.00049352658929723
  65    8.4993311084046e-06
  66    -7.7931556830165e-05
  67    0.00030125090754791
  68    -0.00026065456082521
  69    0.00020408203662837
  70     -0.55697030184745
  71     -0.66807493985989
  72    -0.076122260123402
  73      0.55265381165433
  74      0.66286540014955
  75     0.075735633221309
  76    0.0010316358983741
  77    0.0010327963897098
  78    -8.1977568917822e-05
  79    0.00035654070897772
  80    0.00026689033859285
  81    1.8675787158248e-05
  82    -0.00026065784088552
  83    -0.0005075942687395
  84    0.00062703517927356
  85    -0.0038485648808387
  86    -0.00015178391259688
  87    -0.00016211103615734
  88    -0.00067222969104572
  89    -0.00010468855520362
  90    -0.00082964179171465
  91    0.00014732062755303
 Sym= A
 Ene=               3
 Spin= Alpha
 Occup=    1.00000
   1    6.0617293870121e-05
   2    -0.00052330510014524
   3    -0.001264922133169
   4    -0.0011603271076782
   5    0.0019252843492692
   6    -0.0084396711180604
   7    -0.0012036360783203
   8    -0.0002706797930447
   9    -0.00030204862798769
  10    -0.00046733068286856
  11    4.8895529979375e-05
  12    -0.00079890802488364
  13    0.00040785552356424
  14    -0.0014464938377929
  15    0.0099481142652074
  16    9.240948348391e-05
  17    -0.00073420892720468
  18    0.0084245114429016
  19    -0.0016536454224962
  20    0.0030835871013646
  21    0.0049257663810414
  22    -0.0023923110668413
  23    -0.012286381263022
  24    0.0056679838214754
  25    -0.002123988209229
  26    -0.0076339839070508
  27    0.0049650927612556
  28    -0.0019800361660607
  29    0.0048388335207491
  30    0.00093683673152609
  31    0.0063769344696805
  32    -0.0033560578264157
  33    0.0044401231222719
  34    0.0019516872895029
  35    -0.00094762261706114
  36    -0.00060485729693383
  37    -0.0016322735820783
  38    0.0030142304442199
  39    0.0038170013142577
  40    0.0093448148046086
  41    0.0014532154160692
  42     0.006989872959152
  43    0.0053296900999321
  44    0.00099095488818107
  45     0.004875913385215
  46    0.00019618764623546
  47    -0.001264852096535
  48    -0.00073893235177032
  49    -0.00092916882503003
  50    0.0029992159433556
  51    -0.0090531203399009
  52    0.00099867549498884
  53    0.0031217346383367
  54    -0.00098577017591936
  55    -0.0041776902673608
  56    -0.0021542270399264
  57    -0.0043038934601901
  58    -0.001080429822757
  59    -0.00062128067911151
  60    -9.0037419146001e-05
  61    -0.0059601763437067
  62    -0.0016362735910816
  63    -0.002765898669562
  64    -0.0019635187824825
  65    -0.00086088674198875
  66    -0.0023817123557192
  67    0.0015180242346961
  68    0.0022212946722326
  69    0.00044303570357284
  70      0.64038024441331
  71     -0.49639296986486
  72      -0.3298795968444
  73     -0.63441681096004
  74      0.49159300077501
  75      0.32661686405676
  76    0.00014026934561082
  77    -6.7682012887756e-05
  78    0.00098422286956416
  79    -0.00034240123122711
  80    0.00019498323867857
  81    0.0006955902160611
  82    -0.001960323501684
  83    -0.0044662812281381
  84    -0.00089561322982026
  85    -0.00042313845761057
  86    -0.00032666336180198
  87    -0.00089229705263758
  88    -0.0020247377455586
  89    -0.0011687683117232
  90    -0.0005203645757115
  91    0.00089719393308861
 Sym= A
 Ene=               4
 Spin= Alpha
 Occup=    1.00000
   1     -0.21574294651588
   2     0.024507305157562
   3     0.066246538786729
   4    0.0032451696689906
   5     0.007799887999579
   6    -0.013929015805348
   7    -0.017567830550597
   8    -0.011389549505569
   9    -0.013701497541953
  10      0.51432680655059
  11    -0.089097925525535
  12     -0.16256273413609
  13     0.052239662152291
  14     0.012814094070183
  15    -0.011448639528986
  16     0.044718567148561
  17    -0.0049399990747037
  18    -0.001835924571899
  19       0.3687534812988
  20    -0.062660687824535
  21    -0.085462972733931
  22    -0.018228786536364
  23    -0.022765106613065
  24     0.076495188536974
  25    -0.016679526337316
  26    -0.015345847376907
  27     0.034492400614369
  28     -0.37709470182682
  29     0.034017237208208
  30     0.065145822313553
  31    -0.075235378489314
  32    -0.0057177236286514
  33    -0.054377065690948
  34    -0.048774134086943
  35     0.013498348955501
  36    -0.045948186105739
  37      0.39882257352239
  38    -0.071608404224467
  39     -0.11223563488944
  40     0.081120034078792
  41     0.084826045603639
  42     0.052498543321192
  43     0.071528286219977
  44     0.055056629092069
  45     0.042067749814826
  46     -0.24505299782278
  47     0.036576016467865
  48      0.10478956759517
  49    -0.067251617044069
  50     -0.10440328693453
  51     0.011725881277493
  52    -0.036068031790827
  53    -0.049541279972758
  54     0.024588670702057
  55     0.087538450733186
  56     0.025283912061312
  57     -0.11072988336063
  58    -0.024172149123756
  59     0.061982136877768
  60     0.014451497243995
  61    -0.058952376976702
  62    -0.012619588694816
  63     0.011141846525594
  64    0.0073704476079296
  65     0.012531668214824
  66    0.0060149602661754
  67    0.0085709463942031
  68    -0.0091577864076447
  69    -0.0033720465069844
  70    -0.0010196259652545
  71     0.003833339749419
  72    -0.0077018902080694
  73    0.0040706100690857
  74    -0.0070282445904204
  75    0.0087067432552464
  76    0.0013628915884749
  77    0.0032491929002923
  78     -0.01150945780472
  79    -0.0019192762419215
  80    0.0011919280362558
  81    -3.5381641248328e-05
  82    -0.029609740643568
  83    -0.062734095486431
  84    -0.041416171492973
  85    -0.021869115249359
  86     0.018930704286241
  87     -0.01735455236268
  88    -0.041813224875137
  89    -0.023625712235621
  90    -0.012359900941736
  91     0.012636617466368
 Sym= A
 Ene=               5
 Spin= Alpha
 Occup=    1.00000
   1     -0.48025376950963
   2     0.043620454705785
   3      0.09132448965921
   4    -0.025988612707041
   5     0.008436004100145
   6    -0.020304890264703
   7    -0.036401387442237
   8    -0.0034194069015696
   9    -0.018548802816646
  10    -0.0090693962565854
  11     0.024448942526613
  12     0.047745120658044
  13     0.054600658176839
  14     0.023846510919916
  15     0.054873175974647
  16     0.013389341277109
  17    -0.0075201025572999
  18     0.030209964233297
  19      0.47485164625165
  20    -0.040436670217392
  21    -0.086664120801813
  22     0.047341704689286
  23     0.025975867131714
  24      0.10575877932849
  25     0.025834030633504
  26     0.023231611652287
  27     0.022191638115796
  28    -0.018260892086119
  29    -0.0073297901951253
  30    -0.0067963926247195
  31     -0.11200891114538
  32     -0.10040524594532
  33    -0.0041705735572862
  34    -0.036108065411696
  35    -0.013217279671444
  36    -0.0097579899351753
  37     -0.44260747586283
  38     0.043358713283051
  39      0.13483329081446
  40     0.014822129921395
  41     0.058770071839663
  42    -0.061969561583148
  43      0.02992312410821
  44     0.039574372326871
  45     0.024594928437372
  46      0.48658302213355
  47    -0.057225227682156
  48     -0.15140860551555
  49    0.0049423898883946
  50     -0.03039914342603
  51     -0.01334542926943
  52    0.0040485264876692
  53    -0.064708760272118
  54     0.031203431263044
  55    -0.020236748640362
  56     -0.02063143229213
  57     0.010852958931235
  58    0.0061789548770982
  59    0.0012234042336433
  60    -0.0027105862641081
  61    -0.017589403451284
  62    -0.0078006350446571
  63    -0.00065459226008048
  64    -0.009078618156337
  65    -0.00070250217567608
  66    -0.0012905186598752
  67    0.0023840477438836
  68    -0.0069381836149465
  69    0.0060043361810337
  70    0.0012589766500536
  71    0.0023125345037909
  72    -0.0023057474999293
  73    -0.000210749401438
  74    -0.0036838833589059
  75     0.005260964520263
  76    0.0049432978444688
  77     0.003513956697505
  78    -0.0039182147669528
  79    0.0027432643239175
  80    -0.0025965079841603
  81    0.00042075047098112
  82      0.04864328096552
  83     0.077383214005569
  84     0.074527840157578
  85     0.043071164444178
  86    -0.017063022661677
  87     0.030827926888024
  88     0.047888698606595
  89      0.04844425722743
  90     0.028902305531757
  91    -0.009233102874252
 Sym= A
 Ene=               6
 Spin= Alpha
 Occup=    1.00000
   1     -0.22395475637882
   2     0.029141968895063
   3     0.096179859567566
   4     0.014726421036088
   5     0.061237163679985
   6    -0.065977730972243
   7    -0.025389886070043
   8    -0.0056007344707021
   9    -0.018487020395261
  10      0.64430490933084
  11     -0.11729838315262
  12      -0.2228235160169
  13    -0.011706122330232
  14    -0.0030270835380643
  15     -0.02916790493889
  16     0.003965218701027
  17    -0.015386472823821
  18    0.0097255495682967
  19      -0.2627920894751
  20     0.030067116515586
  21     0.028051669860652
  22     0.036217983788034
  23    0.0099344186133429
  24     0.064800738302799
  25    0.0039427186762035
  26    0.0034069341178317
  27    0.0044075079824495
  28       0.5355500265834
  29    -0.081974026174108
  30     -0.11926357268939
  31     0.010208698441787
  32    0.0044957763646036
  33     0.015299504378589
  34    0.0078528936440839
  35    0.0015859534767935
  36    -0.0066670681831597
  37     -0.28516900630385
  38     0.032995083680016
  39     0.047600273276347
  40    -0.028183724591032
  41    -0.050334906189999
  42     0.067523860531703
  43    -0.020054661381915
  44    -0.0052803518499924
  45    0.0070592718660579
  46     -0.19896186794668
  47     0.022641509851705
  48     0.070861809153711
  49    -0.037655976367755
  50    0.0084032066442951
  51    -0.075847475074541
  52     0.014480291283602
  53     0.041869526641119
  54    -0.024314887298542
  55    -0.0017082662609691
  56      0.01143273001956
  57     0.024049158428848
  58    0.0064565594347599
  59    -0.041871751229775
  60    -0.0081941180742234
  61     0.011195432601259
  62    0.0022553982176182
  63     0.020067103106853
  64     0.016607000037506
  65    0.0013755122826176
  66    -0.00096561656260616
  67    0.0071914808674634
  68    -0.0077788616982757
  69    -0.010041450154775
  70    0.00024756738217741
  71    -0.00076594643412445
  72    -0.00084102019842705
  73    -0.0016687808295347
  74      0.00216403428095
  75    -0.0035529142745723
  76    0.0011459808788958
  77    -0.0028633465646483
  78    -0.0021516671896116
  79    -0.005083118509585
  80    0.0044399619897077
  81    -0.0009471911282963
  82     0.010155102391066
  83     0.030708813271701
  84     0.026348242360064
  85     0.012062654584597
  86    -0.0080958659408225
  87    0.0035504700671186
  88      0.01952856629979
  89     0.016912619137541
  90    0.0072880269759485
  91    -0.0056602088759476
 Sym= A
 Ene=               7
 Spin= Alpha
 Occup=    1.00000
   1     -0.42170609127532
   2     0.066893833399331
   3     0.035642843729398
   4     0.010937111161021
   5    -0.00045271580376552
   6    0.0096696428689371
   7     0.023273365505575
   8     0.026271033388231
   9    0.0024732061099232
  10     -0.45743047444421
  11      0.10149264336573
  12      0.14533844696541
  13    0.0010365558593549
  14    -0.011224203268496
  15    -0.0034172773945718
  16    2.7464988400328e-05
  17    -0.0040880480074188
  18    -0.0094005625683274
  19      0.28481057092339
  20    -0.036087333901715
  21    -0.0062425099856477
  22     0.028007370018778
  23    -0.0006221114407435
  24     0.054491914072516
  25    -0.013326261373678
  26    -0.029883758688891
  27     0.016775821078981
  28      0.50901293690638
  29    -0.084023899784501
  30     -0.12135076573048
  31    -0.0017771899350797
  32     0.019702515384974
  33    -0.041145881120765
  34    -0.0081418395623818
  35     0.015460172490489
  36    -0.053622017517365
  37      0.29778564881474
  38    -0.037177714416925
  39    -0.010005055007085
  40    -0.011606678442121
  41     -0.04255068232255
  42       0.0595710097962
  43     0.012756850359942
  44     0.007655472195148
  45     0.017450878629445
  46     -0.40748401205348
  47     0.059618924644959
  48     0.032493927154094
  49     0.013941283995287
  50     0.013502632791081
  51    0.0029893629149037
  52    -0.012740396816986
  53    -0.0068362327459905
  54     -0.00843385377272
  55     0.011917210967693
  56    -0.0071985818885573
  57    -0.015554671470228
  58    -0.00059487195698782
  59    -0.0093953181450394
  60    -0.007911854541572
  61    -0.023638339012963
  62    -0.0024301723849308
  63     0.030877697877891
  64    -0.0030590443794846
  65    -7.998399890662e-05
  66    0.0012682680535551
  67    -0.0057672452007904
  68    0.0057179026355845
  69    0.0067855809809096
  70    0.00018589725966749
  71    -0.00055070195551623
  72    0.0037721375281245
  73    -0.0027326099669143
  74    0.0034070921835056
  75    -0.013836591553906
  76    -0.0031995819269506
  77    0.0013506809903296
  78    0.0020288792998336
  79    0.0028209054854632
  80    -0.002326643284089
  81    -0.0026355053059505
  82    -0.0092579577927059
  83    -0.0045677171391307
  84    -0.010629335828892
  85    -0.0052923840484607
  86    0.0035709405284555
  87    -0.0074916217933217
  88    -0.00050928291999407
  89    -0.0083515495195704
  90    -0.003809987133773
  91    0.0029477316398477
 Sym= A
 Ene=               8
 Spin= Alpha
 Occup=    1.00000
   1      0.50929314954047
   2     -0.07700914678238
   3    -0.076768311662298
   4     0.028868617691518
   5    -0.024854816109577
   6      0.04134054527866
   7     0.023742097715495
   8    -0.0067327347711686
   9     0.011135709770683
  10    0.0099968336931017
  11     0.002457264437261
  12    0.0075495979864915
  13    -0.0086734704253724
  14    -0.017711011513205
  15     0.010503058000019
  16    0.0043686225111836
  17    0.00034637896036806
  18    0.0075498362251006
  19       0.5408548574744
  20    -0.084241255970693
  21    -0.089530747749262
  22     0.025031569526979
  23     0.019943465943863
  24    -0.046285162126828
  25     0.031212415047415
  26       0.0132025169025
  27    -0.012685065127898
  28     0.043622722335462
  29    -0.0066980974244227
  30    -0.0083630213512101
  31    -0.036905401983026
  32    -0.036243070749535
  33    -0.0089762222296454
  34    0.0024620816543666
  35    0.0094204299422767
  36    -0.0077310106527914
  37     -0.47523114405311
  38     0.076390002049938
  39     0.095829227361284
  40    0.0086463738200355
  41     0.018015944222237
  42     0.059063666193859
  43     0.010526734787416
  44     0.033726446470865
  45     0.026218778302248
  46     -0.45042133717904
  47     0.065132416585257
  48     0.055859942711178
  49    -0.025228681399339
  50     0.030954654493878
  51    -0.053105760104702