[Molden Format]
made by pyscf v[2.0.1]
[Atoms] (AU)
C   1   6    -4.12961850001203    -2.83585530335105     1.25236118699788
N   2   7    -5.28461910734620    -4.81916066560458     2.39246886274435
C   3   6    -4.67215887037466    -2.09228586785719    -1.26703302062901
C   4   6    -6.47851027832391    -3.51116783122562    -2.63972062888244
C   5   6    -7.66431342148849    -5.59604597267452    -1.46340013141093
C   6   6    -6.99829834614678    -6.16472125533988     1.06145538471595
H   7   1    -7.84727670486888    -7.75643757006103     2.04052626930535
H   8   1    -9.01406920322033    -6.76686358767129    -2.46849254473560
H   9   1    -6.91777711597906    -3.02133192247711    -4.58309607812391
H   10   1    -3.77695781064570    -0.40651599419031    -2.06690684600428
H   11   1    -2.82948692631127    -1.75592217658911     2.41503219267166
Fe   12   26    -8.09309227915230    -2.24809378682758     0.68987475739047
[GTO]
1 0
 s    6 1.00
             3047.5249  0.0018347001629433
             457.36951    0.01403730124668
             103.94869   0.068842606114048
             29.210155    0.23218442062076
              9.286663    0.46794134155879
              3.163927    0.36231203217765
 s    3 1.00
             7.8682724   -0.11933240861517
             1.8812885   -0.16085421161283
             0.5442493     1.1434564825515
 s    1 1.00
             0.1687144                   1
 p    3 1.00
             7.8682724   0.068999095584993
             1.8812885    0.31642397975315
             0.5442493    0.74430825237435
 p    1 1.00
             0.1687144                   1

2 0
 s    6 1.00
              4173.511  0.0018347994430301
              627.4579   0.013994995751693
              142.9021   0.068586979179805
              40.23433    0.23224092950117
              12.82021    0.46906985760962
              4.390437    0.36045489058067
 s    3 1.00
             11.626358   -0.11496102288211
               2.71628   -0.16911803366165
              0.772218     1.1458522280731
 s    1 1.00
             0.2120313                   1
 p    3 1.00
             11.626358   0.067580023248036
               2.71628    0.32390711142648
              0.772218    0.74089525487354
 p    1 1.00
             0.2120313                   1

3 0
 s    6 1.00
             3047.5249  0.0018347001629433
             457.36951    0.01403730124668
             103.94869   0.068842606114048
             29.210155    0.23218442062076
              9.286663    0.46794134155879
              3.163927    0.36231203217765
 s    3 1.00
             7.8682724   -0.11933240861517
             1.8812885   -0.16085421161283
             0.5442493     1.1434564825515
 s    1 1.00
             0.1687144                   1
 p    3 1.00
             7.8682724   0.068999095584993
             1.8812885    0.31642397975315
             0.5442493    0.74430825237435
 p    1 1.00
             0.1687144                   1

4 0
 s    6 1.00
             3047.5249  0.0018347001629433
             457.36951    0.01403730124668
             103.94869   0.068842606114048
             29.210155    0.23218442062076
              9.286663    0.46794134155879
              3.163927    0.36231203217765
 s    3 1.00
             7.8682724   -0.11933240861517
             1.8812885   -0.16085421161283
             0.5442493     1.1434564825515
 s    1 1.00
             0.1687144                   1
 p    3 1.00
             7.8682724   0.068999095584993
             1.8812885    0.31642397975315
             0.5442493    0.74430825237435
 p    1 1.00
             0.1687144                   1

5 0
 s    6 1.00
             3047.5249  0.0018347001629433
             457.36951    0.01403730124668
             103.94869   0.068842606114048
             29.210155    0.23218442062076
              9.286663    0.46794134155879
              3.163927    0.36231203217765
 s    3 1.00
             7.8682724   -0.11933240861517
             1.8812885   -0.16085421161283
             0.5442493     1.1434564825515
 s    1 1.00
             0.1687144                   1
 p    3 1.00
             7.8682724   0.068999095584993
             1.8812885    0.31642397975315
             0.5442493    0.74430825237435
 p    1 1.00
             0.1687144                   1

6 0
 s    6 1.00
             3047.5249  0.0018347001629433
             457.36951    0.01403730124668
             103.94869   0.068842606114048
             29.210155    0.23218442062076
              9.286663    0.46794134155879
              3.163927    0.36231203217765
 s    3 1.00
             7.8682724   -0.11933240861517
             1.8812885   -0.16085421161283
             0.5442493     1.1434564825515
 s    1 1.00
             0.1687144                   1
 p    3 1.00
             7.8682724   0.068999095584993
             1.8812885    0.31642397975315
             0.5442493    0.74430825237435
 p    1 1.00
             0.1687144                   1

7 0
 s    3 1.00
             18.731137    0.03349459952309
             2.8253937    0.23472694665786
             0.6401217    0.81375731841339
 s    1 1.00
             0.1612778                   1

8 0
 s    3 1.00
             18.731137    0.03349459952309
             2.8253937    0.23472694665786
             0.6401217    0.81375731841339
 s    1 1.00
             0.1612778                   1

9 0
 s    3 1.00
             18.731137    0.03349459952309
             2.8253937    0.23472694665786
             0.6401217    0.81375731841339
 s    1 1.00
             0.1612778                   1

10 0
 s    3 1.00
             18.731137    0.03349459952309
             2.8253937    0.23472694665786
             0.6401217    0.81375731841339
 s    1 1.00
             0.1612778                   1

11 0
 s    3 1.00
             18.731137    0.03349459952309
             2.8253937    0.23472694665786
             0.6401217    0.81375731841339
 s    1 1.00
             0.1612778                   1

12 0
 s    6 1.00
              61132.62  0.0017661109761772
              9179.342   0.013530379817491
              2090.857   0.066731279099873
              589.2479    0.23148229687757
              188.7543    0.47970579352933
              64.44629    0.35019759527624
 s    6 1.00
               1259.98   0.002438014026839
              299.8761   0.032240480354921
              96.84917    0.12657240139338
               36.3102  -0.031399020345658
              14.72996   -0.62075930683366
              6.066075   -0.45029140495706
 s    6 1.00
              50.43485  -0.0038732559842369
              16.83929   0.071965979707118
              7.192086    0.25565909895954
               3.05342   -0.28828369882676
              1.273643   -0.73428219701167
              0.504091   -0.20493529916597
 s    3 1.00
              1.950316   0.056948690305124
              0.736721    0.28829150154463
              0.114177    -1.1381590060981
 s    1 1.00
              0.041148                   1
 p    6 1.00
               1259.98  0.0040280186654072
              299.8761   0.031446467387857
              96.84917    0.13683168863389
               36.3102    0.34872357103281
              14.72996    0.46179306164054
              6.066075    0.20430578302906
 p    6 1.00
              50.43485  -0.0070171278804837
              16.83929  -0.028776599509875
              7.192086   0.061813828947182
               3.05342     0.3954945932639
              1.273643    0.49890589150259
              0.504091    0.17912509694913
 p    3 1.00
              1.950316   -0.45937961634956
              0.736721    0.28521391015091
              0.114177    0.90764853230368
 p    1 1.00
              0.041148                   1
 d    3 1.00
              23.14994   0.088769354792419
              6.122368    0.38963192103518
              1.846601    0.70148163787111
 d    1 1.00
              0.504361                   1

[5d]
[7f]
[9g]

[MO]
 Sym= A
 Ene=               0
 Spin= Alpha
 Occup=    1.00000
   1    -0.0003138071856105
   2    -0.0085208486426348
   3    0.0061418812671039
   4    0.0088967141928234
   5    -0.0028144180981026
   6    0.0041426641010429
   7    -0.035513001537803
   8    0.0042033331016823
   9    -0.0047733876569322
  10    -0.0020722458375096
  11    -0.003506917748221
  12    -0.0017002712434596
  13    0.0038729881626768
  14    -0.0048087466541093
  15    -0.0013284171057148
  16    -0.010892415589724
  17    0.0097763751346671
  18    -0.009099378616056
  19    -0.0018878981294517
  20    -0.0098493760216777
  21    0.0075564395119471
  22    0.0054873498754659
  23    3.5445311776017e-05
  24    -0.0072533023072631
  25    -0.035909073814207
  26    -0.0033272706231652
  27      0.01986302530559
  28    -2.3766357908825e-07
  29    -0.011599522597101
  30      0.00693668584811
  31    0.0048541783639809
  32    -0.0034838283196778
  33    -6.6609533335224e-05
  34    -0.016163330821587
  35     0.012372774468199
  36     0.042728370516438
  37    -0.0019818863989816
  38    -0.0087610367639998
  39    0.0065566149907141
  40    0.00021450826332574
  41    -0.0061225074291527
  42    -0.0073448383179203
  43    -0.0029831657100919
  44     0.032013123502423
  45     0.019704327021635
  46    -0.00010417836626264
  47    -0.0082335256197654
  48    0.0048391130922723
  49    0.0054845451485885
  50    -0.0069515784561045
  51    0.0033324807088844
  52    -0.007193753889513
  53     0.034078360156464
  54    -0.0034970509544081
  55    0.00029859200406853
  56    -0.0011288843388079
  57    0.0026416193928568
  58    0.00061335120307059
  59    -0.0053559516755267
  60    -0.0044684574394176
  61    0.0010147927212896
  62    -0.00073507973456171
  63    0.0017919258237687
  64    -0.00029791025704307
  65      0.41560278333965
  66      0.71031408099918
  67     -0.55131993076993
  68    -0.074210315181445
  69     0.060433954627276
  70    6.7859992412384e-07
  71    5.3318061995918e-05
  72    -0.0001528557195042
  73    -0.0045595348841303
  74     0.003576666060521
  75    0.0032838531001302
  76    -0.0075245530293842
  77    0.0057762724185475
  78    0.0052431405825233
  79    0.0052513256243712
  80    -0.0041896870510298
  81    -0.0019440789270691
  82    0.0024214828588003
  83    0.0018758000786034
  84    0.0014463916030223
  85    0.00097258079939516
  86    -0.0019929078877185
  87    0.0029842176416195
  88    0.0026428293724953
  89    1.5880416042671e-05
  90    0.00026049428977549
  91    -7.4634393034202e-06
 Sym= A
 Ene=               1
 Spin= Alpha
 Occup=    1.00000
   1    0.00025124405083459
   2    0.0035526454679295
   3    -0.0097356956817034
   4    -0.0078341190609471
   5    -0.0043221917507695
   6    -0.00028581926585497
   7     0.019053101404987
   8    -0.00046360222908274
   9    -0.0074627151675568
  10    0.0017300759056493
  11    0.0064959151878508
  12    -0.0074865304065764
  13    -0.003845459102611
  14     0.006309318052498
  15    -0.0067134488019392
  16     0.019308571000299
  17    -0.016536030263251
  18    0.0067565524467967
  19    -4.2575410207162e-06
  20    -0.0044970075522641
  21    0.0045577933770418
  22    -0.0028397262275058
  23    0.00021732098085314
  24    0.0070371509356569
  25    -0.024078382181755
  26    0.0011805400460829
  27    0.0019589030181285
  28    -0.0015283166556243
  29    -0.0069840868092138
  30     0.012997692863319
  31    -0.0049598046215941
  32    -0.001123734093546
  33     0.007903934667664
  34    -0.022840783208522
  35     0.016446332272038
  36      0.03394239799483
  37    -4.880944437697e-05
  38    -0.0033969945973209
  39    0.0033777584398622
  40    0.0013318175097563
  41     0.005098351200047
  42    0.0035915837013418
  43    -0.0021465078166663
  44     0.021530552882966
  45    3.2081501951013e-05
  46    0.00028897988965422
  47    0.0038552929811172
  48    -0.0090487395964233
  49    0.00032281676674023
  50    0.0036991719876367
  51    0.0022438639428384
  52    0.0028950458520989
  53    -0.022066348226334
  54    -0.0061212929880292
  55    -0.00027480564128234
  56    -0.0012905499688675
  57    -0.0036634136397966
  58    -0.0024502232710741
  59    -0.0036582887690846
  60    -0.0015813185309879
  61    -0.0023086921375056
  62    -0.0016773101337532
  63    -0.0044212310978213
  64    -0.0040292062385058
  65    3.6291161630963e-07
  66    0.00015076009926639
  67    0.0021813858744849
  68    -0.003521898693586
  69    -0.00012685342288651
  70      0.16979537754555
  71     -0.21590776277616
  72      0.65369642203004
  73       -0.168051796889
  74      0.21332077363402
  75     -0.64417104722521
  76    -0.0093520246671189
  77     0.012595100062908
  78    -0.041945840528538
  79    -0.0078859419667771
  80    0.0090183148113164
  81    -0.024313530516595
  82    -0.003906098708872
  83    0.0006728572854701
  84    -0.0021311058588285
  85    -0.00034586380125004
  86    -0.00070306994578997
  87    -0.0054118535350125
  88    0.0029336989801662
  89    -0.003290834579058
  90    2.4075237215481e-05
  91    -0.002650712212529
 Sym= A
 Ene=               2
 Spin= Alpha
 Occup=    1.00000
   1    -0.0011810204285984
   2    -0.0069009088730395
   3     0.010118680435674
   4    -0.00049126564433524
   5     0.002446167481678
   6    0.0011605120404663
   7    -0.029303447347561
   8     0.012721663348179
   9    -0.0050343823754016
  10    0.00025227589449426
  11    -0.00046150581415578
  12    -0.00022257806749133
  13    -0.0030699883444181
  14    -0.0053701681439909
  15    -0.00065104930371021
  16    0.0027913693045855
  17    0.0015505345908403
  18    -0.00023097909078171
  19    -0.00085976628134142
  20    -0.0063796641955387
  21     0.012305137353678
  22    -0.0059689177412813
  23    0.00013793713359638
  24    0.0016302827855548
  25    -0.030395082104583
  26    0.0058721752247512
  27     0.023796859894874
  28    -0.00013068658229846
  29    0.00051977603992546
  30    -0.001592790783162
  31    -0.0022572078814085
  32    -0.0018900288985665
  33    0.00057820043216076
  34    0.0095589734222112
  35    0.0088017848499371
  36    -0.0017801325239468
  37    0.0012803888889503
  38    0.0071099787289322
  39    -0.012273885786608
  40    0.0015767584260603
  41    -0.0029701339234226
  42    0.00019802251739627
  43     0.010409166256511
  44    -0.029259917166256
  45    -0.023894414541125
  46    0.00091195941856468
  47    0.0073460391436111
  48    -0.010228857100067
  49    0.0030225146736113
  50    -0.00029144700297176
  51    -0.0022799872406905
  52     0.016604081684988
  53    -0.028825454554187
  54    0.0042328226342525
  55    -0.0010330396699392
  56    -0.0014692541862557
  57    0.00038334536979534
  58    -0.00072253664057134
  59    -0.00019758213334819
  60    -0.00039527846626578
  61    -0.0024989888979957
  62    -0.00062012102905475
  63    0.00084487817766187
  64     0.001223229301448
  65    2.3844896104647e-05
  66    -3.1922156780943e-05
  67    0.00013990059071128
  68    -0.00073693372372721
  69    0.00022924890517445
  70     -0.45230643224979
  71     -0.54252244265973
  72    -0.061783702092454
  73       0.4456848655855
  74      0.53456745937194
  75     0.060962556696407
  76     0.029308818214628
  77     0.035106876716796
  78    0.0031799022566991
  79     0.017331068329535
  80     0.021000415654123
  81      0.00227297671587
  82    -0.00072476823648371
  83    -0.00048023355027308
  84    0.00090215958328025
  85    -0.0035181306217019
  86    0.0002544582046018
  87    -0.0003223261215008
  88    -0.00018720933021807
  89    0.0019249439852631
  90    -0.0059906514613935
  91    -0.00027003360468654
 Sym= A
 Ene=               3
 Spin= Alpha
 Occup=    1.00000
   1    0.0011937619154839
   2    0.0053771149264089
   3    -0.011532217564433
   4    -0.0031675708251112
   5    0.0016225693368488
   6    -0.011901570577188
   7     0.029022051447217
   8    -0.0026494805622849
   9    0.0030986227092988
  10    0.00011594413779855
  11    0.0039406939563981
  12    -0.0048488707992244
  13    -0.0016961157559763
  14     0.000360985858323
  15     0.009328128528795
  16     0.014115415830214
  17    -0.013718245172719
  18     0.016936151899354
  19    0.00048423150406627
  20     0.010902467567279
  21    -0.011967004659283
  22    -0.0034701553605234
  23    -0.017195711914421
  24    0.0070632430109935
  25     0.029834682056595
  26    -0.0044131556951329
  27    -0.015920674258537
  28    0.00037279829598503
  29     0.012732563348579
  30    -0.010655025160229
  31    0.0095281777340672
  32    -0.0052315515850874
  33    0.0067703325296489
  34     0.018780180371228
  35    -0.014267269158926
  36    -0.032015900629156
  37    0.00026206275074903
  38     0.010209847121934
  39    -0.0098320760468294
  40     0.013313375885426
  41    0.0032024501241414
  42    0.0093361697576839
  43    0.0075239746987993
  44    -0.026447781814952
  45    -0.014429166765499
  46    0.0011141799605678
  47     0.004257840592207
  48    -0.010624698555543
  49    -0.00051671925179949
  50    0.0058489651601761
  51     -0.01236760339874
  52    0.0055401700351557
  53    -0.024569096775443
  54    0.00026126527480225
  55    -0.0068949610704519
  56    -0.0065397063321669
  57    -0.0073896781668332
  58    -0.0067553086671262
  59    -0.0015898098414483
  60    -0.0031948047845321
  61    -0.0097133218233969
  62    -0.0084197856320594
  63    -0.0045901436107675
  64    -0.0051728755216199
  65    -0.00031737022591033
  66    -0.0029215760414354
  67    -0.0056632421501749
  68    -0.022704065210231
  69    0.0078474499264172
  70      0.52027519507835
  71     -0.40332504889981
  72     -0.26810012164758
  73     -0.50922715264376
  74      0.39459260632736
  75      0.26183494439845
  76    -0.024645666281822
  77     0.019081219363419
  78     0.013351001894086
  79    -0.019742301655326
  80     0.015056741461271
  81     0.011759322073232
  82    -0.0031888778083288
  83     -0.00427230199123
  84    -0.00021823613610859
  85    -0.00033541581923329
  86    0.00076979827025066
  87    -0.0034125695369038
  88    -0.0054702338643733
  89    0.0015396089079174
  90    0.00042667815030725
  91    -0.0013895014575463
 Sym= A
 Ene=               4
 Spin= Alpha
 Occup=    1.00000
   1     -0.20788869037323
   2     0.011383749028744
   3    -0.0086437803470341
   4    0.0071623180108108
   5     0.016892662109017
   6    -0.019728013245327
   7     0.019582988185165
   8     0.023422030632661
   9    -0.0076649572620243
  10      0.49146802810314
  11    -0.081543942760265
  12    -0.075744129747643
  13     0.065371074999181
  14     0.013369390878319
  15    -0.013812157079413
  16     0.035540804722863
  17    -0.013989545454034
  18    -0.026569786338753
  19      0.35381808038182
  20    -0.051025308923092
  21    -0.044463769268509
  22    -0.026232647960835
  23    -0.030903869231788
  24      0.09652093805733
  25    -0.041263136849616
  26    -0.024499152592122
  27     0.054725066283261
  28     -0.36598131965603
  29     0.017052920334382
  30    0.0077924780819066
  31    -0.090892894000002
  32    -0.0072013722849565
  33    -0.066599489404555
  34    -0.054930148363886
  35     0.021910465424612
  36    -0.049501455518197
  37      0.38142691205201
  38    -0.064588436155109
  39    -0.061594446426363
  40      0.10116387008498
  41      0.10782500272199
  42     0.067698566103814
  43     0.068217298693493
  44     0.070468238502686
  45     0.058660881058159
  46     -0.23454981619742
  47     0.027916642039527
  48     0.021669175023883
  49    -0.087972197248278
  50     -0.13185103614677
  51     0.011632243645018
  52     -0.05391429988153
  53     -0.09296685254381
  54     0.028894046314122
  55      0.13541455449503
  56     0.082414400351177
  57     -0.17153129124018
  58     -0.11463739131166
  59     0.095999637870344
  60     0.053808206378137
  61    -0.089364037917765
  62    -0.062964460470176
  63     0.015772766782732
  64    0.0028827252852449
  65     0.011653209923076
  66    0.0057317055670861
  67    0.0059411810489394
  68    0.0011009821382586
  69    -0.014331945087713
  70    -0.00065763866492837
  71    0.0026691405153935
  72    -0.0055850170649763
  73    0.0043467641899267
  74    -0.0057695693303237
  75    0.0050496700403285
  76    -0.010537982702071
  77     0.015555729314733
  78    -0.018454060515751
  79    -0.016318787843881
  80     0.010801880524388
  81    0.0022624690841622
  82    -0.057076605874903
  83    -0.059460993895325
  84     -0.02376472309834
  85    -0.019302163791792
  86     0.039071404092658
  87     -0.03788112041427
  88    -0.050356654889512
  89    -0.0080790706384944
  90    -0.010443159331547
  91     0.034997598107543
 Sym= A
 Ene=               5
 Spin= Alpha
 Occup=    1.00000
   1     -0.46654281215961
   2     0.027570347594212
   3     0.026815691883689
   4    -0.030899495239497
   5     0.010126053908045
   6    -0.023689948863177
   7    -0.015986791933175
   8    0.0097735491707928
   9     0.010354427206271
  10    -0.0042397345466611
  11     0.030837095907639
  12     0.028760736283456
  13     0.069234185125296
  14     0.035627679315481
  15     0.066267061318362
  16     0.041113478705593
  17      0.01406650900148
  18     0.051482341595785
  19      0.46180710790444
  20    -0.021649102250286
  21    -0.024470400768547
  22     0.064636809320697
  23     0.032836565411716
  24      0.13792521661959
  25     0.023880315460894
  26      0.01080043023193
  27     0.080717946618057
  28    -0.018760482438874
  29    -0.0087753842862914
  30    -0.0024166922056975
  31     -0.14843139760365
  32     -0.12954412494423
  33    -0.0030994325198307
  34    -0.090415067948737
  35    -0.061933467442607
  36    0.0032797451434811
  37     -0.42809710351257
  38     0.032104374826934
  39      0.02343509863385
  40     0.018380172661044
  41     0.074052123282231
  42    -0.084106668592812
  43    -0.0053305355390962
  44     0.032674308689362
  45    -0.060046268776051
  46      0.46873204426936
  47    -0.047946273529937
  48    -0.035017191662026
  49    0.0078095930334159
  50    -0.039631841720853
  51    -0.017159275823065
  52     0.034077597866654
  53    -0.013179776923611
  54    -0.0035298675379748
  55    -0.028054984800553
  56    -0.023101524118666
  57     0.014279653423193
  58      0.01229764754203
  59    0.0026126466632036
  60    5.7505825024984e-05
  61    -0.025183435314336
  62    -0.020531828949747
  63    -0.0017847227029172
  64    0.0038014793250158
  65    -0.00050590597318878
  66    -0.00050848805208912
  67    0.0015159280840945
  68    -0.0060158228207974
  69    0.0049134736613056
  70    0.00096471127500761
  71    0.0016016154480554
  72    -0.0011850007318852
  73    -0.00021026014357867
  74    -0.0016019853215936
  75    0.0031670949344259
  76    0.0057590712673513
  77      0.01105423718793
  78    -0.0065312747035164
  79    0.0029851898107387
  80    0.0012302023887876
  81    0.0040802546034506
  82     0.086496345722846
  83     0.070392179412238
  84     0.052706051978597
  85     0.041334217073813
  86     -0.04278647107896
  87      0.06808084833995
  88     0.062231051897965
  89     0.056263056263188
  90     0.041491820293805
  91    -0.027121948261369
 Sym= A
 Ene=               6
 Spin= Alpha
 Occup=    1.00000
   1     -0.21505439803491
   2     0.023006557027812
   3     0.011742135977157
   4     0.021940944981808
   5     0.085061458050661
   6    -0.090073020312958
   7     0.023957576102093
   8     0.069243529834965
   9    -0.057316847240052
  10       0.6153593156468
  11     -0.10854899061174
  12     -0.10285665169544
  13    -0.013883615948086
  14    -0.0034303912939463
  15    -0.032920809140545
  16    -0.011248464181552
  17     0.010087260546903
  18    -0.048946943182951
  19     -0.25501042656541
  20     0.017590428153267
  21     0.011432528190631
  22     0.049382306383875
  23     0.012683760419507
  24     0.088149078551627
  25     0.036983886914969
  26     0.015993482389616
  27     0.053851321220773
  28      0.51457493045162
  29     -0.07067671092506
  30    -0.054880947081321
  31     0.011129683530863
  32    0.0048826161969364
  33     0.021743735340993
  34    0.0079097064112599
  35    -0.0068094164875663
  36     0.041466138325426
  37     -0.27597829011895
  38     0.023537737802771
  39     0.018030720358412
  40    -0.034668273723265
  41    -0.065840389339543
  42     0.090372099134997
  43    -0.032702956976392
  44    -0.040333158146998
  45     0.048597904631774
  46     -0.19185626130979
  47     0.013631833763908
  48    -0.001025849467224
  49    -0.055298580296527
  50    0.0057762775432728
  51     -0.10361492925702
  52    -0.051572500456867
  53    -0.0092347330964174
  54    -0.073307188986411
  55    -0.005004139734106
  56    -0.0052016957091095
  57     0.037713213762859
  58     0.025389654159973
  59    -0.062208106751681
  60    -0.048817957584569
  61      0.01740309748106
  62     0.012102011646431
  63      0.02951569866055
  64     0.018773073063765
  65    0.0016096196124959
  66    0.00023309875345597
  67    0.0033672822853768
  68    -0.0029328851428115
  69    -0.0086920435720949
  70    -0.00023846231693322
  71    -0.0001416951821854
  72    -0.0012549679357336
  73    0.00017187608864325
  74    -6.3919857474512e-05
  75    -0.0011349557095255
  76    -0.0024495164548612
  77    -0.0010354988896205
  78    0.0030328293236974
  79    -0.0095155966718396
  80    0.0092422542429978
  81    -0.0022911880001405
  82     0.023928129778417
  83     0.028384086637291
  84     0.017623617358535
  85     0.010794120827437
  86    -0.018994708942143
  87    -0.00098247843530761
  88     0.020724893688143
  89     0.016465729200142
  90     0.006278449135493
  91    -0.0073326152248874
 Sym= A
 Ene=               7
 Spin= Alpha
 Occup=    1.00000
   1     -0.40647351142632
   2     0.056550829189691
   3     0.056293794564954
   4    0.0099444108596842
   5    -0.0064227417664332
   6     0.016217136327203
   7    0.0084103986465906
   8    -0.023565667052289
   9     0.039703463070336
  10     -0.43417461215916
  11      0.10493925252715
  12      0.10067112311077
  13    -0.0003628751654246
  14    -0.012251758907892
  15    -0.0090218031840823
  16     0.010206508726954
  17    -0.010724965411233
  18    0.0082216044334062
  19      0.27600027129848
  20    -0.025023157336776
  21     -0.02295927230707
  22     0.038905001418046
  23    0.0019113640680311
  24     0.069604792313743
  25     0.031201572767486
  26    0.00017658624140483
  27     0.060720478346285
  28        0.487800078144
  29    -0.079714068718995
  30    -0.062412614745648
  31    -0.0018273014097962
  32     0.025020691963785
  33    -0.053557528654015
  34    -4.2299576027696e-05
  35    0.0097881267261973
  36     -0.01441400811504
  37      0.28861826886737
  38    -0.026067851634478
  39    -0.023705713132249
  40    -0.016692842170307
  41    -0.057512172048877
  42     0.076140583975379
  43    -0.0091124598922124
  44    -0.038658174729098
  45     0.059933418467937
  46     -0.39332211781481
  47      0.04972320703056
  48     0.047590311128093
  49     0.022517824258405
  50      0.02050381502865
  51     0.008702008792004
  52     0.028827338012087
  53     0.012485618161965
  54     0.034500539697573
  55     0.017998242886036
  56     0.022220300551873
  57    -0.024522404051085
  58    -0.019857245900792
  59    -0.011723501161269
  60     -0.02341275566596
  61     -0.03753089166796
  62    -0.027016808186781
  63     0.047280870435651
  64     0.042102631377534
  65    -0.00034953198893486
  66    0.00015915321450743
  67    -0.002502286338066
  68    0.0022472955203315
  69    0.0075440522398632
  70    0.00015033361208348
  71    -0.00029249421642621
  72    0.0018762375169437
  73    -0.0029039948671815
  74    0.0029780469701803
  75    -0.0072994683420519
  76    0.0080548954183683
  77    -0.010273826258576
  78     0.038474524738086
  79     0.015140295721322
  80    -0.013143448099683
  81     0.031305574284348
  82     -0.01397596999533
  83    -0.0035240207606207
  84    -0.0086301442221567
  85    -0.0053111551340146
  86     0.007101502278818
  87    -0.026546724272883
  88     0.014727972984003
  89    -0.020839051122023
  90    -0.0050802051646041
  91    0.0018042087569058
 Sym= A
 Ene=               8
 Spin= Alpha
 Occup=    1.00000
   1       0.4898061923425
   2    -0.068660181203284
   3    -0.057329908534544
   4     0.038758961004868
   5    -0.032691039258703
   6     0.057035213313985
   7     0.019175600355551
   8    -0.035818683915995
   9     0.035630650409407
  10     0.010447198631806
  11    0.0039341435908681
  12    0.0025010469052057
  13    -0.013217799208006
  14    -0.024529232934346
  15     0.012492471434073
  16    -0.014872457415077
  17    -0.025210068161339
  18    0.0097139603194345
  19      0.51925763086176
  20    -0.079412564228284
  21    -0.064894549605427
  22     0.032977006051812
  23     0.027168972071636
  24    -0.062182861322437
  25     0.013242707444781
  26    0.00075020541725417
  27    -0.042614624128138
  28     0.041966117178001
  29    -0.0058680523715277
  30    -0.0042941461008506
  31    -0.050179964093918
  32    -0.049707893964975
  33    -0.011540569265408
  34     -0.04268890489312
  35    -0.042366241236761
  36    -0.0074776543005272
  37     -0.45538436145062
  38     0.074255657362879
  39     0.057524822095757
  40     0.012018364390383
  41     0.023648698730921
  42     0.077926635356972
  43    -0.010455591575015
  44    0.0068856007272046
  45     0.045565795578373
  46     -0.43380150077759
  47     0.056679797823021
  48     0.046499095770457
  49    -0.032925563196385
  50     0.040808286634512
  51     -0.07074944329424
  52    -0.031462959789454
  53     0.018360671509612
  54    -0.038105897354621
  55    0.0088073943916304
  56     0.016430689557392
  57     0.010107947040657