[Molden Format]
made by pyscf v[2.4.0]
[Atoms] (AU)
Ti   1   22     3.26922619549756     0.00000000000000     0.00000000000000
Ti   2   22    -3.26922619549756     0.00000000000000     0.00000000000000
O   3   8     0.00000000000000     2.31302477646764     0.00000000000000
O   4   8     0.00000000000000    -2.31302477646764     0.00000000000000
O   5   8     7.27544557957549     0.00000000000000     0.00000000000000
O   6   8    -7.27544557957549     0.00000000000000     0.00000000000000
[GTO]
1 0
 s   19 1.00
               3014643  8.0607802311693e-06
              451432.9  6.2675166246771e-05
              102733.8  0.0003295005276955
              29098.17   0.001389202695158
               9492.33  0.0050284678965698
              3426.346   0.016104186466151
              1335.896   0.045812309947099
              553.5026     0.1128612752341
              240.6925    0.22481925066641
              108.7293    0.31145703165491
              50.26457    0.22249945117546
              22.58004   0.072931263996207
              10.71432    0.11606827453036
              5.093546    0.11947737378228
              2.244183   0.020978675396509
               1.05957  -0.00050917138826913
              0.468849  0.00022178585133205
              0.106143  -7.6368943241854e-05
              0.055262  7.7195373060505e-05
 s   19 1.00
               3014643  -4.6304583920351e-06
              451432.9  -3.6004295333278e-05
              102733.8  -0.0001893408711018
              29098.17  -0.00079887333691497
               9492.33  -0.0028986807173319
              3426.346  -0.0093396453146708
              1335.896  -0.026974479171328
              553.5026  -0.068788719864242
              240.6925   -0.14810281697352
              108.7293   -0.24452384208696
              50.26457   -0.24199015719343
              22.58004   0.031837710175514
              10.71432    0.49326565902529
              5.093546    0.49396255487023
              2.244183   0.091962581695812
               1.05957  -0.005316960298937
              0.468849  0.00080855757917507
              0.106143  -0.00069184177506423
              0.055262  0.00060864757108913
 s   19 1.00
               3014643  9.2399561605131e-07
              451432.9  7.1862825466435e-06
              102733.8  3.7789772710475e-05
              29098.17  0.00015961553115619
               9492.33  0.0005801049746131
              3426.346  0.0018803263173221
              1335.896   0.005498338885087
              553.5026   0.014447663469352
              240.6925   0.032997639045658
              108.7293   0.061317290514616
              50.26457   0.071413758759515
              22.58004  -0.019751587632034
              10.71432   -0.27446603567422
              5.093546   -0.44454981317867
              2.244183   0.077840004338272
               1.05957    0.70756400216977
              0.468849     0.4418385557932
              0.106143    0.02802619301774
              0.055262  -0.012120226434377
 s   19 1.00
               3014643  -2.9548588213461e-07
              451432.9  -2.2969404175191e-06
              102733.8  -1.2087658772677e-05
              29098.17  -5.100622325389e-05
               9492.33  -0.00018561014905796
              3426.346  -0.00060076309519241
              1335.896  -0.0017602766046884
              553.5026  -0.0046169632661483
              240.6925  -0.010585540295028
              108.7293   -0.01964073383871
              50.26457  -0.023149325708433
              22.58004  0.0066375081050407
              10.71432   0.091520755160142
              5.093546    0.15901263448324
              2.244183  -0.040454223769545
               1.05957    -0.3086738486315
              0.468849   -0.39682957239206
              0.106143    0.36121185790058
              0.055262    0.80127233554292
 s   19 1.00
               3014643  -3.9910020280429e-07
              451432.9  -3.1737048563507e-06
              102733.8  -1.6158025906302e-05
              29098.17  -7.1212751147513e-05
               9492.33  -0.00024524657995547
              3426.346  -0.00084916714904051
              1335.896  -0.0022913227798102
              553.5026  -0.0066463117315996
              240.6925  -0.013403558758857
              108.7293  -0.029676351201321
              50.26457  -0.024869319041815
              22.58004  -0.0084482306848182
              10.71432    0.17006199904634
              5.093546    0.15067809072368
              2.244183   0.098268678419331
               1.05957   -0.96921629920489
              0.468849    0.14956707113732
              0.106143     2.1999302243011
              0.055262     -1.248290644502
 s    1 1.00
              0.025465                   1
 p   15 1.00
              11912.03  4.4000009375622e-05
              2819.947  0.00039100008331519
              915.9479  0.0022480004790091
              350.3842  0.0098230020931076
              148.4825   0.034338007316821
              67.53944   0.096666020597816
              32.30332    0.20941704462306
              15.92786    0.33018907035744
              8.038035    0.33193607072969
              4.093916    0.15848803377099
               2.02239   0.022310004753867
              0.976102  -0.0015660003336869
              0.459595  -0.001324000282121
              0.177152  -0.00027100005774531
              0.073517  3.2000006818634e-05
 p   15 1.00
              11912.03  -1.5002678277159e-05
              2819.947  -0.00013102339028719
              915.9479  -0.00075513480661701
              350.3842  -0.0033195926134594
              148.4825  -0.011752097983775
              67.53944   -0.03392805683452
              32.30332  -0.076177599220103
              15.92786    -0.1257244443197
              8.038035   -0.13312176488889
              4.093916   0.017409107872815
               2.02239    0.31522127328139
              0.976102    0.46189645772587
              0.459595    0.29990953983172
              0.177152   0.050008927590531
              0.073517  -0.0042307552741589
 p   15 1.00
              11912.03  5.3032624357076e-06
              2819.947  4.1100283876734e-05
              915.9479  0.0002412984408247
              350.3842  0.0010540234090969
              148.4825  0.0037560356200899
              67.53944    0.01081070047519
              32.30332   0.024490465928098
              15.92786   0.040304794511378
              8.038035   0.043814228428207
              4.093916  -0.010939304589256
               2.02239   -0.11740627543291
              0.976102   -0.19835792488277
              0.459595   -0.12492762738235
              0.177152    0.33257554223688
              0.073517     0.7777804462677
 p   15 1.00
              11912.03  4.2546661187364e-06
              2819.947  4.148299465768e-05
              915.9479  0.00023719763611956
              350.3842  0.0010551571974466
              148.4825   0.003697304857182
              67.53944   0.010819615939947
              32.30332   0.024013335574148
              15.92786   0.040672480762061
              8.038035   0.041841450278184
              4.093916  -0.0064947478302512
               2.02239   -0.12015389852618
              0.976102   -0.17881723497131
              0.459595   -0.17649631460354
              0.177152    0.41632227071795
              0.073517    0.72525038659981
 p    1 1.00
              0.029401                   1
 d    7 1.00
                64.013  0.0039494460212278
               18.8179    0.02682310921389
                6.7287   0.099077548488794
               2.66413    0.23658878496291
               1.07868    0.35882551100814
              0.423209    0.37816529890833
              0.155999    0.25165093773335
 d    7 1.00
                64.013  -0.0052987940131249
               18.8179   -0.03586763010446
                6.7287   -0.13650734450689
               2.66413   -0.31729765822473
               1.07868   -0.41658130846662
              0.423209  -0.056562290349675
              0.155999    0.78568702422622
 d    1 1.00
              0.051884                   1
 f    2 1.00
                1.2274    0.35815798185099
                0.2788    0.82579395815438

2 0
 s   19 1.00
               3014643  8.0607802311693e-06
              451432.9  6.2675166246771e-05
              102733.8  0.0003295005276955
              29098.17   0.001389202695158
               9492.33  0.0050284678965698
              3426.346   0.016104186466151
              1335.896   0.045812309947099
              553.5026     0.1128612752341
              240.6925    0.22481925066641
              108.7293    0.31145703165491
              50.26457    0.22249945117546
              22.58004   0.072931263996207
              10.71432    0.11606827453036
              5.093546    0.11947737378228
              2.244183   0.020978675396509
               1.05957  -0.00050917138826913
              0.468849  0.00022178585133205
              0.106143  -7.6368943241854e-05
              0.055262  7.7195373060505e-05
 s   19 1.00
               3014643  -4.6304583920351e-06
              451432.9  -3.6004295333278e-05
              102733.8  -0.0001893408711018
              29098.17  -0.00079887333691497
               9492.33  -0.0028986807173319
              3426.346  -0.0093396453146708
              1335.896  -0.026974479171328
              553.5026  -0.068788719864242
              240.6925   -0.14810281697352
              108.7293   -0.24452384208696
              50.26457   -0.24199015719343
              22.58004   0.031837710175514
              10.71432    0.49326565902529
              5.093546    0.49396255487023
              2.244183   0.091962581695812
               1.05957  -0.005316960298937
              0.468849  0.00080855757917507
              0.106143  -0.00069184177506423
              0.055262  0.00060864757108913
 s   19 1.00
               3014643  9.2399561605131e-07
              451432.9  7.1862825466435e-06
              102733.8  3.7789772710475e-05
              29098.17  0.00015961553115619
               9492.33  0.0005801049746131
              3426.346  0.0018803263173221
              1335.896   0.005498338885087
              553.5026   0.014447663469352
              240.6925   0.032997639045658
              108.7293   0.061317290514616
              50.26457   0.071413758759515
              22.58004  -0.019751587632034
              10.71432   -0.27446603567422
              5.093546   -0.44454981317867
              2.244183   0.077840004338272
               1.05957    0.70756400216977
              0.468849     0.4418385557932
              0.106143    0.02802619301774
              0.055262  -0.012120226434377
 s   19 1.00
               3014643  -2.9548588213461e-07
              451432.9  -2.2969404175191e-06
              102733.8  -1.2087658772677e-05
              29098.17  -5.100622325389e-05
               9492.33  -0.00018561014905796
              3426.346  -0.00060076309519241
              1335.896  -0.0017602766046884
              553.5026  -0.0046169632661483
              240.6925  -0.010585540295028
              108.7293   -0.01964073383871
              50.26457  -0.023149325708433
              22.58004  0.0066375081050407
              10.71432   0.091520755160142
              5.093546    0.15901263448324
              2.244183  -0.040454223769545
               1.05957    -0.3086738486315
              0.468849   -0.39682957239206
              0.106143    0.36121185790058
              0.055262    0.80127233554292
 s   19 1.00
               3014643  -3.9910020280429e-07
              451432.9  -3.1737048563507e-06
              102733.8  -1.6158025906302e-05
              29098.17  -7.1212751147513e-05
               9492.33  -0.00024524657995547
              3426.346  -0.00084916714904051
              1335.896  -0.0022913227798102
              553.5026  -0.0066463117315996
              240.6925  -0.013403558758857
              108.7293  -0.029676351201321
              50.26457  -0.024869319041815
              22.58004  -0.0084482306848182
              10.71432    0.17006199904634
              5.093546    0.15067809072368
              2.244183   0.098268678419331
               1.05957   -0.96921629920489
              0.468849    0.14956707113732
              0.106143     2.1999302243011
              0.055262     -1.248290644502
 s    1 1.00
              0.025465                   1
 p   15 1.00
              11912.03  4.4000009375622e-05
              2819.947  0.00039100008331519
              915.9479  0.0022480004790091
              350.3842  0.0098230020931076
              148.4825   0.034338007316821
              67.53944   0.096666020597816
              32.30332    0.20941704462306
              15.92786    0.33018907035744
              8.038035    0.33193607072969
              4.093916    0.15848803377099
               2.02239   0.022310004753867
              0.976102  -0.0015660003336869
              0.459595  -0.001324000282121
              0.177152  -0.00027100005774531
              0.073517  3.2000006818634e-05
 p   15 1.00
              11912.03  -1.5002678277159e-05
              2819.947  -0.00013102339028719
              915.9479  -0.00075513480661701
              350.3842  -0.0033195926134594
              148.4825  -0.011752097983775
              67.53944   -0.03392805683452
              32.30332  -0.076177599220103
              15.92786    -0.1257244443197
              8.038035   -0.13312176488889
              4.093916   0.017409107872815
               2.02239    0.31522127328139
              0.976102    0.46189645772587
              0.459595    0.29990953983172
              0.177152   0.050008927590531
              0.073517  -0.0042307552741589
 p   15 1.00
              11912.03  5.3032624357076e-06
              2819.947  4.1100283876734e-05
              915.9479  0.0002412984408247
              350.3842  0.0010540234090969
              148.4825  0.0037560356200899
              67.53944    0.01081070047519
              32.30332   0.024490465928098
              15.92786   0.040304794511378
              8.038035   0.043814228428207
              4.093916  -0.010939304589256
               2.02239   -0.11740627543291
              0.976102   -0.19835792488277
              0.459595   -0.12492762738235
              0.177152    0.33257554223688
              0.073517     0.7777804462677
 p   15 1.00
              11912.03  4.2546661187364e-06
              2819.947  4.148299465768e-05
              915.9479  0.00023719763611956
              350.3842  0.0010551571974466
              148.4825   0.003697304857182
              67.53944   0.010819615939947
              32.30332   0.024013335574148
              15.92786   0.040672480762061
              8.038035   0.041841450278184
              4.093916  -0.0064947478302512
               2.02239   -0.12015389852618
              0.976102   -0.17881723497131
              0.459595   -0.17649631460354
              0.177152    0.41632227071795
              0.073517    0.72525038659981
 p    1 1.00
              0.029401                   1
 d    7 1.00
                64.013  0.0039494460212278
               18.8179    0.02682310921389
                6.7287   0.099077548488794
               2.66413    0.23658878496291
               1.07868    0.35882551100814
              0.423209    0.37816529890833
              0.155999    0.25165093773335
 d    7 1.00
                64.013  -0.0052987940131249
               18.8179   -0.03586763010446
                6.7287   -0.13650734450689
               2.66413   -0.31729765822473
               1.07868   -0.41658130846662
              0.423209  -0.056562290349675
              0.155999    0.78568702422622
 d    1 1.00
              0.051884                   1
 f    2 1.00
                1.2274    0.35815798185099
                0.2788    0.82579395815438

3 0
 s    8 1.00
                 11720  0.00070964594651845
                  1759  0.0054672722921914
                 400.8   0.027823118610189
                 113.7    0.10474773971146
                 37.03    0.28292084635691
                 13.27    0.44849523869833
                 5.025    0.27081688521277
                 1.013    0.01545029160744
 s    8 1.00
                 11720  -0.00031444341168873
                  1759  -0.0024821376810179
                 400.8  -0.012316355381583
                 113.7  -0.050538917343672
                 37.03   -0.13938490331632
                 13.27   -0.32507749481778
                 5.025   -0.22984830758785
                 1.013     1.0953793467883
 s    1 1.00
                0.3023                   1
 p    3 1.00
                  17.7   0.062679166281506
                 3.854    0.33353656587936
                 1.046    0.74123964163973
 p    1 1.00
                0.2753                   1
 d    1 1.00
                 1.185                   1

4 0
 s    8 1.00
                 11720  0.00070964594651845
                  1759  0.0054672722921914
                 400.8   0.027823118610189
                 113.7    0.10474773971146
                 37.03    0.28292084635691
                 13.27    0.44849523869833
                 5.025    0.27081688521277
                 1.013    0.01545029160744
 s    8 1.00
                 11720  -0.00031444341168873
                  1759  -0.0024821376810179
                 400.8  -0.012316355381583
                 113.7  -0.050538917343672
                 37.03   -0.13938490331632
                 13.27   -0.32507749481778
                 5.025   -0.22984830758785
                 1.013     1.0953793467883
 s    1 1.00
                0.3023                   1
 p    3 1.00
                  17.7   0.062679166281506
                 3.854    0.33353656587936
                 1.046    0.74123964163973
 p    1 1.00
                0.2753                   1
 d    1 1.00
                 1.185                   1

5 0
 s    8 1.00
                 11720  0.00070964594651845
                  1759  0.0054672722921914
                 400.8   0.027823118610189
                 113.7    0.10474773971146
                 37.03    0.28292084635691
                 13.27    0.44849523869833
                 5.025    0.27081688521277
                 1.013    0.01545029160744
 s    8 1.00
                 11720  -0.00031444341168873
                  1759  -0.0024821376810179
                 400.8  -0.012316355381583
                 113.7  -0.050538917343672
                 37.03   -0.13938490331632
                 13.27   -0.32507749481778
                 5.025   -0.22984830758785
                 1.013     1.0953793467883
 s    1 1.00
                0.3023                   1
 p    3 1.00
                  17.7   0.062679166281506
                 3.854    0.33353656587936
                 1.046    0.74123964163973
 p    1 1.00
                0.2753                   1
 d    1 1.00
                 1.185                   1

6 0
 s    8 1.00
                 11720  0.00070964594651845
                  1759  0.0054672722921914
                 400.8   0.027823118610189
                 113.7    0.10474773971146
                 37.03    0.28292084635691
                 13.27    0.44849523869833
                 5.025    0.27081688521277
                 1.013    0.01545029160744
 s    8 1.00
                 11720  -0.00031444341168873
                  1759  -0.0024821376810179
                 400.8  -0.012316355381583
                 113.7  -0.050538917343672
                 37.03   -0.13938490331632
                 13.27   -0.32507749481778
                 5.025   -0.22984830758785
                 1.013     1.0953793467883
 s    1 1.00
                0.3023                   1
 p    3 1.00
                  17.7   0.062679166281506
                 3.854    0.33353656587936
                 1.046    0.74123964163973
 p    1 1.00
                0.2753                   1
 d    1 1.00
                 1.185                   1

[5d]
[7f]
[9g]

[MO]
 Sym= A
 Ene=               0
 Spin= Alpha
 Occup=    1.00000
   1    0.0090623300007191
   2    -0.0021585653092143
   3    -8.9580321336348e-06
   4    -1.0283890023516e-05
   5    1.8123070738366e-06
   6    -1.1080920502859e-05
   7    1.8366756074303e-07
   8    -5.476978399713e-10
   9    2.1806411889338e-16
  10    2.4577021282386e-06
  11    -5.6905703162784e-09
  12    2.9127144006183e-16
  13    5.6506928873804e-05
  14    -2.342075513919e-07
  15    3.7289704232195e-14
  16    -4.9392645651591e-05
  17    2.4190494177442e-07
  18    -3.6464715600716e-14
  19    9.4639327976301e-06
  20    -2.7999052494154e-08
  21    -1.2935150115843e-15
  22    1.6235408720055e-07
  23    -7.229191647799e-17
  24    3.2213369719576e-16
  25    -6.805931730819e-07
  26    -1.6690567357216e-08
  27    1.3244621290224e-08
  28    -7.5985346089418e-17
  29    5.3877454863861e-16
  30    -5.3343249186022e-07
  31    -1.2080846206101e-08
  32    2.6658305501905e-06
  33    -2.4555221103416e-16
  34    -5.1126151255574e-16
  35    -5.5593833894154e-06
  36    2.8865733482161e-08
  37    1.1890542704168e-16
  38    2.2349130254181e-07
  39    -1.7674585310426e-09
  40    1.5787216576258e-16
  41    3.1674992379687e-18
  42    -6.4534605186269e-08
  43    1.577024537464e-08
  44     -0.97276604756877
  45      0.23160303228508
  46    0.00047090711009086
  47    9.2643305876466e-06
  48    -1.4505686913219e-05
  49    -8.5749263340135e-06
  50    -2.0660949777136e-06
  51    -2.5641278850468e-09
  52    -1.1118652643822e-15
  53    2.3596707720577e-06
  54    -2.2640736851257e-09
  55    -6.8245236188768e-16
  56    0.00017168238084245
  57    -1.649418656084e-06
  58    -2.669266429123e-14
  59    -0.00016737235154674
  60    1.6649898788868e-06
  61    2.5927769561501e-14
  62    7.312361875174e-06
  63    4.8811904381315e-08
  64    1.0260249893549e-15
  65    4.2317056528536e-06
  66    1.6022942703476e-16
  67    -2.9397143937064e-16
  68    -4.0585138887194e-06
  69    1.4917474057346e-07
  70    4.608833309407e-06
  71    5.0581186140951e-16
  72    -2.917350359899e-16
  73    -5.872797492601e-06
  74    -5.2885433543513e-08
  75    -3.9095231158189e-06
  76    1.7380175901992e-16
  77    2.3595262155897e-16
  78    6.2263781275411e-06
  79    1.6863367972237e-08
  80    3.861063890775e-16
  81    1.4029270275986e-06
  82    2.4390018039342e-08
  83    -3.0154949523595e-17
  84    -1.4327124509911e-17
  85    2.1879757823722e-06
  86    1.6105612204576e-07
  87    -8.979837812192e-07
  88    -1.7133826964592e-06
  89    6.3469817161976e-06
  90    1.0218895284227e-07
  91    3.5007797183293e-07
  92    -2.1161711404102e-16
  93    -2.8949635847198e-06
  94    -4.401892981012e-06
  95    -9.9650049859071e-17
  96    -2.5732983727259e-07
  97    -2.0282553346016e-16
  98    2.4709539028232e-16
  99    -4.405003708024e-08
 100    3.2290201401791e-07
 101    -9.0685848137528e-07
 102    -1.7171226389217e-06
 103    6.4457035035405e-06
 104    4.539868851688e-08
 105    -5.5781583518503e-07
 106    -1.3047083398201e-17
 107    -2.9388130360809e-06
 108    4.3287548983694e-06
 109    -9.4936000481447e-17
 110    -2.6407476653648e-07
 111    2.2601017062481e-16
 112    2.3017811884206e-16
 113    -2.6731474274535e-08
 114    -3.3305477422512e-07
 115    -2.4393910122088e-07
 116    -4.6072634628581e-07
 117    1.3778678006225e-06
 118    -1.3847237890277e-07
 119    1.8253455526401e-08
 120    6.4745075677652e-16
 121    6.8937461444247e-08
 122    1.1572277725432e-08
 123    -1.1265475146094e-16
 124    -1.6203121546635e-08
 125    1.1800989402664e-16
 126    -1.6864136361044e-16
 127    4.7315956024403e-08
 128    2.1354696063706e-10
 129    -3.8931984392078e-07
 130    -7.2031926408968e-07
 131    3.9231370629752e-06
 132    -6.3581016319055e-07
 133    1.7856302480651e-08
 134    4.2693473229316e-16
 135    4.7441554939505e-06
 136    -3.4109480461315e-08
 137    4.0251513256216e-16
 138    1.1281805300455e-08
 139    -8.7801057983838e-16
 140    1.8034281912214e-16
 141    8.6314913617163e-08
 142    -1.9985106072075e-08
 Sym= A
 Ene=               1
 Spin= Alpha
 Occup=    1.00000
   1      0.97276606797675
   2      -0.2316029811417
   3    -0.00047072516094392
   4    -8.6762397983532e-06
   5    1.3603019943505e-05
   6    1.5245394052955e-05
   7    -2.1664698368861e-06
   8    8.9252053603092e-09
   9    -1.1340987463278e-15
  10    1.9217954235971e-06
  11    2.4066685079977e-08
  12    6.3184951970865e-16
  13    0.0001159318505635
  14    5.5683776125597e-06
  15    6.2953856614964e-14
  16    -0.00011326787953417
  17    -5.4818113827202e-06
  18    -6.2276953140151e-14
  19    4.1488561388485e-06
  20    -1.6843978617091e-07
  21    -5.9017157982645e-16
  22    -3.8615061510709e-06
  23    -1.4912460788928e-18
  24    -1.14481986287e-16
  25    3.7028093891465e-06
  26    1.1817732028499e-07
  27    -4.0179841192251e-06
  28    7.865818602064e-17
  29    -6.4984895708192e-17
  30    4.1630607791369e-06
  31    1.1437790081578e-07
  32    2.9245170341695e-06
  33    3.6548651704513e-16
  34    6.5082969187204e-17
  35    -4.3176729627534e-06
  36    -4.7249093364266e-08
  37    2.4266071015217e-16
  38    6.7780775292828e-07
  39    2.4325219429316e-08
  40    1.5600146739304e-16
  41    -3.6613643705226e-17
  42    2.0634651570127e-06
  43    -1.8309700681177e-07
  44    0.0090629476720722
  45    -0.0021569799451319
  46    -6.0493916736644e-07
  47    8.2107510464022e-06
  48    -1.3000808959788e-06
  49    5.3128800600226e-06
  50    1.8826625046941e-07
  51    7.6090315185765e-11
  52    3.7359970322223e-16
  53    1.8446487229564e-06
  54    3.9041985753891e-09
  55    4.0886015361283e-15
  56    4.8636621023326e-05
  57    -5.7094801714838e-08
  58    2.4589311024906e-13
  59    -4.3322457371164e-05
  60    6.6285825384431e-08
  61    -2.4108458388247e-13
  62    5.4647203027593e-06
  63    2.8945019009213e-08
  64    -6.8576723712823e-15
  65    -4.0551390938383e-08
  66    8.7254726276605e-16
  67    -1.0985892406845e-16
  68    5.6377139779468e-07
  69    -7.1707723829132e-09
  70    7.0869600808404e-08
  71    -6.5553870936257e-17
  72    -1.3076661770236e-16
  73    4.4237045137784e-07
  74    2.6875159608508e-09
  75    -1.8682567537536e-06
  76    -2.0256973447215e-16
  77    1.3569943140618e-16
  78    3.8689850242752e-06
  79    -2.7198628982688e-10
  80    -5.2913751137365e-17
  81    2.9153438965567e-07
  82    -6.0177376716414e-09
  83    -6.3938379377777e-17
  84    1.0926458204134e-16
  85    -1.4210089157342e-07
  86    -2.1826780536743e-08
  87    6.7080635137025e-07
  88    1.2846065010398e-06
  89    -5.147456254658e-06
  90    6.4281446360432e-08
  91    -1.9142812415042e-07
  92    3.637009135077e-16
  93    -2.5949552402615e-06
  94    3.4736767277912e-06
  95    8.7652279748853e-17
  96    1.3939554765788e-07
  97    -1.1267028440712e-16
  98    -2.9304101121846e-16
  99    4.5843694932705e-09
 100    1.886657618485e-07
 101    6.9668901077828e-07
 102    1.3266172423349e-06
 103    -5.3298637951211e-06
 104    6.2927791792755e-08
 105    4.0999738447893e-07
 106    5.5760573796302e-16
 107    -2.747481352406e-06
 108    -3.4935935595194e-06
 109    2.0256559002456e-16
 110    1.5298300653273e-07
 111    -1.6725567573757e-16
 112    -5.7972035279999e-16
 113    -2.5964270166447e-08
 114    -2.1134854715921e-07
 115    3.0642660034809e-07
 116     5.67586066712e-07
 117    -3.3967418550686e-06
 118    -5.5685793295007e-07
 119    -2.6675703349949e-08
 120    9.8604043189807e-17
 121    4.4850119871193e-06
 122    -2.2018621591999e-09
 123    -8.1011010105838e-17
 124    3.9394683700034e-08
 125    -6.5063341396075e-16
 126    -9.9364442534355e-17
 127    -1.3002109025115e-07
 128    -1.798249651994e-08
 129    1.8523182500848e-07
 130    3.4640049432507e-07
 131    -1.0803590950375e-06
 132    -1.0166597782634e-07
 133    -2.0410939535084e-09
 134    8.5704232062082e-17
 135    -1.2262374964166e-07
 136    -2.2587970290142e-09
 137    -6.0107201229879e-16
 138    2.6057255492438e-08
 139    1.4449919787586e-16
 140    1.4493159536718e-16
 141    -5.9868100796605e-08
 142    1.6137507215382e-09
 Sym= A
 Ene=               2
 Spin= Alpha
 Occup=    1.00000
   1    -0.057435188640343
   2     -0.24125357797962
   3    -0.00060666020789507
   4    0.00033148899586614
   5    -2.2118937214141e-05
   6    0.00023579786458681
   7    0.00011723252728548
   8    -1.2430137697167e-07
   9    -5.9226453058651e-16
  10    -2.9837069919239e-05
  11    -3.8153012291904e-06
  12    -6.8920066710727e-15
  13    0.00061189041679285
  14    3.2595092783884e-05
  15    -4.0104382693946e-13
  16    -0.00074296116513452
  17    -4.7413414085545e-05
  18    3.933230753163e-13
  19    -0.00014746480550331
  20    1.4393051916543e-05
  21    9.5892519809644e-15
  22    -3.12561732727e-05
  23    2.192592403846e-16
  24    -3.8657918492306e-16
  25    3.6933216393611e-05
  26    1.1244728730523e-05
  27    -9.7795260332005e-05
  28    2.6040517937554e-16
  29    -2.7542057700451e-16
  30    0.00010088859942557
  31    1.4046362091892e-05
  32    2.3679417586809e-05
  33    1.1382665572012e-15
  34    3.1625087450502e-16
  35    1.4137730363284e-05
  36    -6.705452029964e-06
  37    3.7007810384675e-17
  38    1.357130218229e-05
  39    3.3024464742818e-06
  40    -1.7225741125546e-16
  41    -3.5782196909297e-16
  42    2.5808441972082e-05
  43    -3.0630516883911e-06
  44      0.22437138173525
  45      0.94240612220801
  46    0.0028684791596931
  47    -0.00020827041116874
  48    0.00024158802891998
  49    -0.00037274175860553
  50    0.00046333511359309
  51    5.4556332121742e-07
  52    -2.1304530215115e-15
  53    2.2803125469478e-05
  54    1.1695536639894e-05
  55    -1.8429179004805e-15
  56    0.0012547642022142