[Molden Format]
made by pyscf v[2.0.1]
[Atoms] (AU)
C   1   6    -4.12961850001203    -2.83585530335105     1.25236118699788
N   2   7    -5.28461910734620    -4.81916066560458     2.39246886274435
C   3   6    -4.67215887037466    -2.09228586785719    -1.26703302062901
C   4   6    -6.47851027832391    -3.51116783122562    -2.63972062888244
C   5   6    -7.66431342148849    -5.59604597267452    -1.46340013141093
C   6   6    -6.99829834614678    -6.16472125533988     1.06145538471595
H   7   1    -7.84727670486888    -7.75643757006103     2.04052626930535
H   8   1    -9.01406920322033    -6.76686358767129    -2.46849254473560
H   9   1    -6.91777711597906    -3.02133192247711    -4.58309607812391
H   10   1    -3.77695781064570    -0.40651599419031    -2.06690684600428
H   11   1    -2.82948692631127    -1.75592217658911     2.41503219267166
Fe   12   26    -8.09309227915230    -2.24809378682758     0.68987475739047
[GTO]
1 0
 s    6 1.00
             3047.5249  0.0018347001629433
             457.36951    0.01403730124668
             103.94869   0.068842606114048
             29.210155    0.23218442062076
              9.286663    0.46794134155879
              3.163927    0.36231203217765
 s    3 1.00
             7.8682724   -0.11933240861517
             1.8812885   -0.16085421161283
             0.5442493     1.1434564825515
 s    1 1.00
             0.1687144                   1
 p    3 1.00
             7.8682724   0.068999095584993
             1.8812885    0.31642397975315
             0.5442493    0.74430825237435
 p    1 1.00
             0.1687144                   1

2 0
 s    6 1.00
              4173.511  0.0018347994430301
              627.4579   0.013994995751693
              142.9021   0.068586979179805
              40.23433    0.23224092950117
              12.82021    0.46906985760962
              4.390437    0.36045489058067
 s    3 1.00
             11.626358   -0.11496102288211
               2.71628   -0.16911803366165
              0.772218     1.1458522280731
 s    1 1.00
             0.2120313                   1
 p    3 1.00
             11.626358   0.067580023248036
               2.71628    0.32390711142648
              0.772218    0.74089525487354
 p    1 1.00
             0.2120313                   1

3 0
 s    6 1.00
             3047.5249  0.0018347001629433
             457.36951    0.01403730124668
             103.94869   0.068842606114048
             29.210155    0.23218442062076
              9.286663    0.46794134155879
              3.163927    0.36231203217765
 s    3 1.00
             7.8682724   -0.11933240861517
             1.8812885   -0.16085421161283
             0.5442493     1.1434564825515
 s    1 1.00
             0.1687144                   1
 p    3 1.00
             7.8682724   0.068999095584993
             1.8812885    0.31642397975315
             0.5442493    0.74430825237435
 p    1 1.00
             0.1687144                   1

4 0
 s    6 1.00
             3047.5249  0.0018347001629433
             457.36951    0.01403730124668
             103.94869   0.068842606114048
             29.210155    0.23218442062076
              9.286663    0.46794134155879
              3.163927    0.36231203217765
 s    3 1.00
             7.8682724   -0.11933240861517
             1.8812885   -0.16085421161283
             0.5442493     1.1434564825515
 s    1 1.00
             0.1687144                   1
 p    3 1.00
             7.8682724   0.068999095584993
             1.8812885    0.31642397975315
             0.5442493    0.74430825237435
 p    1 1.00
             0.1687144                   1

5 0
 s    6 1.00
             3047.5249  0.0018347001629433
             457.36951    0.01403730124668
             103.94869   0.068842606114048
             29.210155    0.23218442062076
              9.286663    0.46794134155879
              3.163927    0.36231203217765
 s    3 1.00
             7.8682724   -0.11933240861517
             1.8812885   -0.16085421161283
             0.5442493     1.1434564825515
 s    1 1.00
             0.1687144                   1
 p    3 1.00
             7.8682724   0.068999095584993
             1.8812885    0.31642397975315
             0.5442493    0.74430825237435
 p    1 1.00
             0.1687144                   1

6 0
 s    6 1.00
             3047.5249  0.0018347001629433
             457.36951    0.01403730124668
             103.94869   0.068842606114048
             29.210155    0.23218442062076
              9.286663    0.46794134155879
              3.163927    0.36231203217765
 s    3 1.00
             7.8682724   -0.11933240861517
             1.8812885   -0.16085421161283
             0.5442493     1.1434564825515
 s    1 1.00
             0.1687144                   1
 p    3 1.00
             7.8682724   0.068999095584993
             1.8812885    0.31642397975315
             0.5442493    0.74430825237435
 p    1 1.00
             0.1687144                   1

7 0
 s    3 1.00
             18.731137    0.03349459952309
             2.8253937    0.23472694665786
             0.6401217    0.81375731841339
 s    1 1.00
             0.1612778                   1

8 0
 s    3 1.00
             18.731137    0.03349459952309
             2.8253937    0.23472694665786
             0.6401217    0.81375731841339
 s    1 1.00
             0.1612778                   1

9 0
 s    3 1.00
             18.731137    0.03349459952309
             2.8253937    0.23472694665786
             0.6401217    0.81375731841339
 s    1 1.00
             0.1612778                   1

10 0
 s    3 1.00
             18.731137    0.03349459952309
             2.8253937    0.23472694665786
             0.6401217    0.81375731841339
 s    1 1.00
             0.1612778                   1

11 0
 s    3 1.00
             18.731137    0.03349459952309
             2.8253937    0.23472694665786
             0.6401217    0.81375731841339
 s    1 1.00
             0.1612778                   1

12 0
 s    6 1.00
              61132.62  0.0017661109761772
              9179.342   0.013530379817491
              2090.857   0.066731279099873
              589.2479    0.23148229687757
              188.7543    0.47970579352933
              64.44629    0.35019759527624
 s    6 1.00
               1259.98   0.002438014026839
              299.8761   0.032240480354921
              96.84917    0.12657240139338
               36.3102  -0.031399020345658
              14.72996   -0.62075930683366
              6.066075   -0.45029140495706
 s    6 1.00
              50.43485  -0.0038732559842369
              16.83929   0.071965979707118
              7.192086    0.25565909895954
               3.05342   -0.28828369882676
              1.273643   -0.73428219701167
              0.504091   -0.20493529916597
 s    3 1.00
              1.950316   0.056948690305124
              0.736721    0.28829150154463
              0.114177    -1.1381590060981
 s    1 1.00
              0.041148                   1
 p    6 1.00
               1259.98  0.0040280186654072
              299.8761   0.031446467387857
              96.84917    0.13683168863389
               36.3102    0.34872357103281
              14.72996    0.46179306164054
              6.066075    0.20430578302906
 p    6 1.00
              50.43485  -0.0070171278804837
              16.83929  -0.028776599509875
              7.192086   0.061813828947182
               3.05342     0.3954945932639
              1.273643    0.49890589150259
              0.504091    0.17912509694913
 p    3 1.00
              1.950316   -0.45937961634956
              0.736721    0.28521391015091
              0.114177    0.90764853230368
 p    1 1.00
              0.041148                   1
 d    3 1.00
              23.14994   0.088769354792419
              6.122368    0.38963192103518
              1.846601    0.70148163787111
 d    1 1.00
              0.504361                   1

[5d]
[7f]
[9g]

[MO]
 Sym= A
 Ene=               0
 Spin= Alpha
 Occup=    1.00000
   1    3.9459521904683e-05
   2    0.00019922511981283
   3    -0.00036982020099688
   4    -0.00020851667612295
   5    -0.00016126794345771
   6    -0.00017458024806902
   7    0.0018231145012818
   8    -0.00043861654750156
   9    0.00018476563105933
  10    -4.3217189182935e-06
  11    0.00024541359228121
  12    0.00023228621730374
  13    -0.00015512762672923
  14    0.00017545673070812
  15    1.3545000891019e-05
  16    0.0004102047176814
  17    -0.00037545813819316
  18    0.00035399892730141
  19    8.5128437514729e-07
  20    0.00046430796292633
  21    -0.00029123646750931
  22    -0.00026244451127707
  23    -7.7807424725354e-05
  24    7.676833476146e-05
  25    0.0017342624212413
  26    0.0001257115021949
  27    -0.0011107019846797
  28    1.5471308970514e-05
  29    0.00039503272105298
  30    -0.0003293075254442
  31    -0.00024879229734103
  32    0.00039453522423563
  33    0.00029054678275809
  34    0.00060942294945329
  35    -0.00045915433381739
  36    -0.0017720677238128
  37    -4.4391517157937e-05
  38    0.00048947094688716
  39    -7.952640257788e-05
  40    -0.00069796883250299
  41    0.00036324435416714
  42    0.0002121389922442
  43    -0.0004584732710613
  44    -0.0012954493048694
  45    -0.0009063603066163
  46    4.7827619547485e-05
  47    0.00010537444920305
  48    -0.00027450564527889
  49    -0.00037117773520467
  50    0.00069860704273112
  51    6.9599746197184e-05
  52    0.00010355068768059
  53    -0.0011660878669759
  54     0.000240772678568
  55    -0.00022068113293647
  56    -0.00012616694853739
  57    0.00030598983056307
  58    0.00023578768795406
  59    2.8997680746014e-05
  60    3.0853384494678e-05
  61    7.723650220886e-06
  62    4.302833598267e-05
  63    -0.00013683930578809
  64    -7.4665176361638e-05
  65     -0.99011991433826
  66      0.13999002303163
  67    -0.0053488861804959
  68    -0.0018598472401802
  69    -0.0030256745258772
  70    -0.00015603643384827
  71    0.00040525386220357
  72    0.00016762335417581
  73    0.00056217832396903
  74    -0.0016419178238592
  75    -0.00075313110003033
  76    0.00016956881190523
  77    -0.00045733511872725
  78    -0.00035259033267216
  79    -0.00030950445677379
  80    4.8504723349383e-05
  81    1.3721243868098e-05
  82    -0.00017513121597944
  83    -0.00033566568757825
  84    -0.00026021867120366
  85    -0.00027382109727134
  86    8.5154503464604e-05
  87     -0.00012951926366
  88    -0.00030050970938146
  89    -0.00013614839019198
  90    -0.00027557978026646
  91    4.4833655831197e-05
 Sym= A
 Ene=               1
 Spin= Alpha
 Occup=    1.00000
   1    -0.00086775635611319
   2    0.0010146708297337
   3    -0.0011114063475166
   4    0.0071447441140238
   5    0.0037976610145026
   6    0.0009846174458446
   7     0.009657746751775
   8    0.00034812288015331
   9    0.0024460500415998
  10    3.8523461620297e-05
  11    -0.0038967159046473
  12    -0.0044203593260574
  13    0.0051726749670434
  14     -0.00932178835476
  15    -0.0017691816330855
  16     0.008169779328184
  17    -0.0086561499901376
  18    -0.0018220443220641
  19    0.0019695496378691
  20    -0.0093063670972867
  21    -0.0092049323991589
  22    0.0063066376915189
  23    -0.0044935340212527
  24    0.0026976179938867
  25    0.0097040751888163
  26    -0.0059496118086183
  27    0.00092383055671545
  28    0.00042293904807959
  29    -0.0021343922162969
  30    -0.0065218139875907
  31    0.0040071298137531
  32    -0.014560604326902
  33    -0.0019738321137807
  34    0.0091559841370676
  35    -0.011794684830455
  36    -0.0079725844747302
  37    0.0025760321132842
  38    -0.0091781292401037
  39    -0.011200688964844
  40     0.022090074083795
  41    -0.00022814862468651
  42    -0.006123341334528
  43     0.020111041839192
  44    -0.0084990508907025
  45    -0.0071017928168972
  46    -0.00018881071271454
  47    -0.000199934292958
  48    -0.0045876305269495
  49     0.012818573359155
  50     -0.01429590296945
  51    0.00071220606299785
  52     0.014903156224397
  53    -0.017743515051865
  54    0.00072439483990638
  55    0.0048230043297747
  56    0.0020663566558944
  57    -0.011928615805238
  58    -0.0097275933154339
  59    -0.0016946515275162
  60    -0.0025671421845046
  61    -0.004591258718632
  62    -0.004941913383354
  63    0.0055536667677687
  64    0.0033230727888559
  65      0.12699483651949
  66      0.90063172391593
  67      0.10312363488618
  68    -0.028530388486061
  69    -0.017023128058406
  70     -0.28889719119974
  71      0.23925861228703
  72      0.11497149492492
  73    -0.022667587911253
  74     0.037485169440134
  75     0.015764890156865
  76     0.020106002225709
  77    -0.010067349461793
  78    -0.004304354199093
  79    0.0016142841979696
  80    0.0031864116181434
  81    0.0031740656652636
  82    0.0053555268848063
  83     0.010062665559006
  84    0.0077725318550387
  85     0.006668073462061
  86    -0.0023455301776739
  87    0.0038182428579268
  88    0.0074899127988733
  89      0.00593728481912
  90     0.006632195758273
  91    -0.0022688276072565
 Sym= A
 Ene=               2
 Spin= Alpha
 Occup=    1.00000
   1    -0.00058393071066252
   2    -0.0024254566995371
   3    0.0050463779385089
   4    -0.049860038343254
   5     0.026070315119188
   6     0.054405005995167
   7    -0.052524375068296
   8     0.032543646503954
   9     0.034033681365717
  10    -0.00078088090916226
  11    0.0019077041869125
  12    0.0022388642451436
  13    -0.013312697906172
  14     0.033760497929257
  15    -0.0037872871569367
  16    -0.014699854416203
  17      0.03039594243931
  18    -0.0020400466641736
  19    -0.0016975704874922
  20    0.00092773146634741
  21    0.0050279963342386
  22    -0.058679837401947
  23     0.030383317572854
  24     -0.01664774643035
  25    -0.049290688630594
  26     0.032958343227106
  27    0.0071784074434343
  28     0.003435131620978
  29    -0.012203629906562
  30    -0.012277735724185
  31     0.032195728549381
  32     0.020747292938585
  33      0.01548145974451
  34     0.024883446609768
  35     0.017076485624024
  36     0.011850102322566
  37     0.005340560900403
  38    -0.014866473416038
  39    -0.018601212545556
  40     0.044594968809257
  41    -0.042090355658523
  42     0.019279023549907
  43     0.043471479479607
  44    -0.037598817951692
  45    0.0068664098095268
  46    -0.0023260288530166
  47    0.0079825888522463
  48    -0.0012676233317633
  49     0.019188954929848
  50     -0.01105656530083
  51    -0.034527485336345
  52     0.024664003593851
  53    -0.015618435093952
  54    -0.017371407360314
  55    -0.0046998557213007
  56    -0.0027890025485873
  57     -0.01378148295744
  58    -0.012839087115522
  59    -0.016200190398714
  60    -0.013205074554658
  61    0.0044112533794524
  62    0.0032726376667841
  63    0.0090286899985953
  64     0.006079455414035
  65    -0.00063660410220278
  66    -0.0023453966411768
  67      0.02189662009551
  68    -0.0069976258896142
  69    -0.0024953254949674
  70      0.62116716290403
  71      0.72287281913166
  72     0.025323492609567
  73      0.15825874959277
  74      0.15923289499848
  75    -0.019579834551419
  76    -0.0077490927202214
  77    -0.022141272643379
  78     0.011256786503882
  79     0.016994297295599
  80     0.021998744570078
  81    0.0083400336961588
  82    -0.0023156840008532
  83    0.00032736515598418
  84    -0.0066821725042756
  85     0.019200443498638
  86    -0.00075585649689731
  87    -0.004707704682941
  88    -0.0003370292350252
  89    -0.011774261348364
  90     0.025550450518074
  91    -0.0021214434276688
 Sym= A
 Ene=               3
 Spin= Alpha
 Occup=    1.00000
   1    -0.00018725157091949
   2    0.0050589368763681
   3    0.0024499267316588
   4    -0.005255986054235
   5    -0.0094360716902803
   6    0.0051155495748888
   7    -0.0057044392615901
   8    0.0007956693324777
   9    -0.0061325757799237
  10    0.0013680475613172
  11    -0.010765597517074
  12     -0.01174710796878
  13      0.01563192228186
  14    -0.0097392471024035
  15    -0.050320857830914
  16     0.017240782900757
  17    -0.010177445388666
  18    -0.041307365919921
  19    -0.00012490077262189
  20    -0.0042246769367726
  21    0.0019052084378573
  22    -0.025409647743607
  23     0.023312828432011
  24     0.007866905561253
  25    -0.027710379050277
  26     0.021436038571951
  27     0.014471835053998
  28    0.0021078483715248
  29    -0.0056029863942671
  30    -0.0042530054736436
  31    -0.023197734162353
  32     0.020890337908295
  33    0.0079337468673268
  34    -0.019132404492816
  35     0.022197746649355
  36    0.0077174605219391
  37    0.0022473752800763
  38    -0.0065802537904907
  39    -0.0072169511928492
  40    -0.006211038181213
  41    0.00066012725127967
  42    -0.0004165416306335
  43    -0.002849449038591
  44    -0.0024653889773865
  45    -0.00058921236104644
  46    1.6597028537906e-05
  47    0.0054424994564676
  48    -0.0019277188819959
  49     0.023855130496877
  50    -0.005684084712208
  51    -0.0042090800128627
  52     0.017031396873013
  53    -0.012581556727486
  54    -0.010189170040182
  55    0.0012360842397087
  56    0.00042998025858378
  57    0.00038889212037531
  58    -0.0010197565930464
  59    -0.0025047704107632
  60    -0.0026043349917411
  61    0.0021578146372894
  62    0.0016816620240859
  63    0.0034081257724891
  64    0.0022187348551267
  65    0.00032464888681548
  66    0.0040665017303971
  67     0.014632002854959
  68    -0.0044845422333256
  69    -0.001948033665317
  70     -0.21315528225872
  71      0.17256333566907
  72     -0.94189628095602
  73     0.053307029394528
  74     0.093665802732354
  75    -0.099017302531114
  76     0.017439789635336
  77    -0.0001277351976416
  78     0.042733580094599
  79    -0.00025564448811875
  80     0.011673748057708
  81    -0.012889090618674
  82    -0.0084647519670192
  83    -0.027477552839835
  84    -0.015309392113931
  85    -0.0051396349457235
  86     0.007851229486481
  87    -0.0051132081138578
  88    -0.024269379852655
  89    -0.010172742742387
  90    -0.000689097531127
  91    0.0067638044583223
 Sym= A
 Ene=               4
 Spin= Alpha
 Occup=    1.00000
   1    0.00071792507823574
   2    -0.00049032132745536
   3    -0.00077554763181707
   4    -0.018963264522228
   5    4.9102787801114e-05
   6    0.0028506541772136
   7    -0.014372714215554
   8    0.0041664166049276
   9    0.0001777074282385
  10    0.00015665128053029
  11      0.00238174470198
  12    0.0017640713460633
  13    -0.0095713897365757
  14     0.016355506010025
  15    -0.0011676501703161
  16    -0.010993012055003
  17     0.011817222409394
  18    0.00040792971906833
  19    -0.0023359963116531
  20     0.011406284247767
  21    0.0080831467892522
  22    -0.013780139810024
  23    0.0099055943245013
  24    -0.0015973492685378
  25    -0.010364546034493
  26      0.01119397609737
  27    -0.0017137993578853
  28    4.9063755413473e-05
  29    0.00091610117713222
  30    0.0022206018336476
  31    -0.0024398193456843
  32      0.01570144220236
  33    0.0057833931782089
  34    -0.0041605916511268
  35     0.010712056942816
  36    0.0049377839689766
  37    -0.002070018852889
  38    0.0099560076254942
  39    0.0078974151942494
  40    -0.015353356684066
  41    -0.0027680442284258
  42     0.010475367997729
  43    -0.013345607756894
  44    -0.0013003588973838
  45    0.0061732324489956
  46    -0.0012331093484127
  47    0.0057814605050531
  48    0.0049066986009752
  49    -0.013028429344182
  50     0.011935039207806
  51    -0.0054305630422283
  52     -0.01234250725882
  53    0.0085092763086057
  54    -0.003122264741489
  55    -0.0016849254724915
  56    0.00028023821532247
  57     0.009158600225235
  58    0.0076898034320917
  59    -0.0009338808896182
  60    0.00021894440239972
  61    0.0067702310717677
  62    0.0061304877710628
  63    -0.0071166228702743
  64    -0.0046298277375355
  65     0.054918643531162
  66      0.39186541637252
  67     0.036046498010485
  68    -0.035510025813229
  69    0.0035149921493952
  70      0.66544318561306
  71     -0.57130356474115
  72     -0.25075351159642
  73      0.03911313746764
  74    -0.025154847387405
  75    -0.011598037452165
  76    -0.034973733542549
  77     0.030081034882783
  78     0.012658856924587
  79    0.0017589615314221
  80    -0.0026418412514616
  81    -0.0028811593411021
  82    -0.0030833275614969
  83    -0.0050542903013504
  84    -0.0041386696013083
  85    -0.0015821644553619
  86    0.00065932865136072
  87    -0.0031293972464356
  88    -0.0041296034443319
  89    -0.0037107170939013
  90    -0.00095636960415391
  91    7.8496365895683e-05
 Sym= A
 Ene=               5
 Spin= Alpha
 Occup=    1.00000
   1    -0.014591161188154
   2     0.016496164612674
   3     0.043069857192167
   4     0.073889836716729
   5     0.044483855079548
   6     0.032862443487805
   7    -0.014203753583536
   8     0.025909715010864
   9     0.024303385146102
  10    -0.004848497606358
  11    -0.021258404662114
  12     0.001793978494575
  13    0.0054197668501282
  14    -0.035676647758615
  15     0.030209672252232
  16    -0.014844034404187
  17    0.0087959872354155
  18    -0.0018693365513873
  19     0.010881324612372
  20    -0.058681262622539
  21    -0.017358245276191
  22     0.065929246551007
  23    -0.044858201513481
  24    -0.0090208571377474
  25    0.0063136693822196
  26    -0.059293205941728
  27     0.041702603001802
  28    -0.0023886180070393
  29    -0.0074176033614378
  30    -0.0040400866784891
  31     0.055310190635043
  32     -0.10479250840839
  33    -0.023446850948956
  34     0.049706935209291
  35    -0.048029232061903
  36     0.021713578432957
  37     0.027175113801512
  38    -0.096136768276494
  39    -0.063494785710376
  40      0.15963573765634
  41     0.023600163799888
  42    -0.026560101145116
  43      0.13356612854331
  44     0.047274578315111
  45     0.024750859278227
  46    -0.0058541996711423
  47    -0.004924108132381
  48    0.0080445107494425
  49     0.044254775901618
  50    -0.071167866080061
  51     0.032505171220402
  52     0.041422239297955
  53    0.0064658364986258
  54     0.034347697871376
  55     0.038909859525697
  56     0.020780903382632
  57     -0.11471875688783
  58    -0.090166366662964
  59    -0.0064712055197607
  60    -0.010067773096818
  61    -0.025002711539501
  62    -0.022815415285395
  63     0.067214027643005
  64     0.048401411612004
  65     0.015900213042131
  66     0.084590972199153
  67     -0.77665130028273
  68     0.035775920618048
  69     0.036545616601671
  70    -0.014131947998211
  71     0.013904688248552
  72    -0.029714035772603
  73      0.34584388292182
  74     -0.31017158712818
  75    0.0091341283947269
  76    -0.017026522000354
  77     0.039060501823525
  78     0.059340972563529
  79     0.039235208829501
  80    -0.0044478481446295
  81     0.031010935962552
  82     0.016904038987928
  83     0.048620458566267
  84     0.025958738497416
  85     0.022170183525969
  86    -0.014061817050219
  87     0.013632740235659
  88     0.046303937650676
  89     0.012902562255144
  90     0.019057573839946
  91    -0.0090209494712097
 Sym= A
 Ene=               6
 Spin= Alpha
 Occup=    1.00000
   1     0.035375084261847
   2     -0.10076458270076
   3    -0.097982285541361
   4     -0.22383508078407
   5     0.035282420819185
   6      0.12214336590096
   7     -0.19901536377501
   8     0.031831586870146
   9      0.11340747637894
  10    0.00025803658250485
  11     0.008842437181724
  12    -0.0036578496985684
  13     0.042842946076732
  14     0.040270116819426
  15     0.023037422236273
  16    0.0068724701636811
  17    0.0038978626870713
  18      0.01558576363757
  19     0.040820891089995
  20     -0.11894244603519
  21     -0.10604176448802
  22     -0.35432149847427
  23      0.05617585492119
  24     0.071820558393596
  25     -0.31706830950993
  26     0.076074972964742
  27     0.074953351687858
  28     0.001725548471851
  29    -0.0087592108262795
  30     -0.03956644670766
  31    -0.026364971211839
  32      0.12836029536982
  33      0.10298081655643
  34    -0.054688156786794
  35      0.11878242079688
  36     0.078300528650221
  37      0.03821475543408
  38     -0.14121926283027
  39     -0.12807723270451
  40      0.21420285661991
  41    -0.014452791681702
  42      0.14482046620667
  43      0.17574582715337
  44    0.0031185050478319
  45      0.10327172384309
  46    -0.014468310209995
  47     0.006765540288567
  48    -0.014585551751862
  49     0.087467202367883
  50    -0.074951199064952
  51     -0.13706886520024
  52      0.10461637157898
  53    -0.055960563329955
  54    -0.039694934778171
  55    -0.013790233762835
  56    -0.014331696436051
  57     -0.19268329561091
  58     -0.15371531216498
  59    -0.020368632812557
  60    -0.030458380103373
  61        -0.14132289161
  62     -0.12058631650032
  63    -0.076871874885178
  64    -0.075535082435244
  65    -0.0027003503241859
  66    -0.011279725783294
  67     0.062533314404906
  68    -0.054156471018049
  69    -0.031519554855433
  70    -0.045312045919934
  71    -0.054776306000976
  72     0.041161536510064
  73     -0.16589029216025
  74     -0.21749370280651
  75     -0.18437953984451
  76     0.094184604837378
  77      0.10931342957857
  78    -0.025693413807223
  79    -0.022655435263628
  80     0.064542625461764
  81     0.028359149708759
  82    -0.057597667564112
  83     -0.15303360039464
  84     -0.10473130187111
  85     0.026982064319761
  86      0.04026489527924
  87    -0.036672179981584
  88     -0.14469489744548
  89    -0.083723719208352
  90      0.07268580885716
  91     0.031532344844805
 Sym= A
 Ene=               7
 Spin= Alpha
 Occup=    1.00000
   1    -0.032358779502205
   2     0.083372604239437
   3     0.092819772096102
   4      0.10307884502095
   5     0.051614432328362
   6     0.037342496838229
   7     0.057115586844671
   8     0.026367057465487
   9     0.043244455688774
  10    -0.013866017368653
  11     0.045357083998948
  12     0.064248417142766
  13      0.19939098400099
  14     -0.18301993568314
  15      0.02334064536815
  16       0.1788085439964
  17     -0.15288031920061
  18    -0.0044662296800323
  19    -0.0032721655716501
  20     0.041282599466217
  21     0.036240737225755
  22     -0.15007899143078
  23      0.10513207254683
  24     0.093570720015919
  25    -0.099434286092551
  26      0.12301279918052
  27      0.12974503847271
  28      0.03830698062161
  29    -0.086248199730374
  30    -0.069615743907566
  31    -0.096169720827468
  32      0.13054668963725
  33      0.13987515632884
  34    -0.093739918641369
  35     0.086964236980115
  36      0.10967367308086
  37    -0.015618167953007
  38     0.075316595051761
  39     0.056429360728423
  40      -0.1060721009225
  41    -0.099098430370187
  42    0.0077185239388449
  43    -0.086520757495457
  44     -0.12045642558881
  45     0.030172078711958
  46    -0.027755027465008
  47     0.080388103608964
  48     0.085842494944473
  49     0.070540019894712
  50     -0.20737738514661
  51    -0.028550438161427
  52     0.073255752816084
  53     -0.16958185221637
  54    -0.020485596455408
  55     0.092862652506099
  56     0.083319464853366
  57      0.11036693579414
  58     0.084866530372514
  59      -0.1037213686988
  60     -0.08131162756823
  61    -0.0066044529477255
  62    0.0037569345309565
  63      0.10694490301249
  64     0.089115713489112
  65    -0.0011644043493394
  66    -0.0053908259690013
  67    0.0091463530206273
  68    -0.025116254055171
  69     0.042881815120423
  70    -0.032733646972777
  71    -0.035345893241377
  72    0.0076030394648417
  73      0.24362714019664
  74     0.020443554389115
  75      0.54256472452213
  76     0.022414807098366
  77      0.07102496728077
  78     -0.10519687127417
  79     0.036496609614848
  80    -0.010672339350471
  81     0.010125868785545
  82    -0.0093262561962255
  83     -0.13646366521279
  84    -0.042050586413937
  85    -0.0030956289066637
  86     0.058585982868058
  87     0.017322670366063
  88      -0.1450299109568
  89    -0.0093030212600689
  90     0.022250632026081
  91      0.07868939475176
 Sym= A
 Ene=               8
 Spin= Alpha
 Occup=    1.00000
   1     0.018969992384815
   2    -0.042884152455086
   3    -0.046471394450987
   4    -0.079790691566357
   5    -0.073451733216742
   6    -0.060211869431769
   7    -0.066712287247406
   8    -0.034410030906901
   9    -0.058077077767008
  10    0.0056346555669285
  11    -0.0082101690310777
  12    -0.031760488146125
  13     0.077819810710883
  14    -0.054614596671756
  15     -0.12304603303627
  16     0.079357077034633
  17    -0.077543103083016
  18    -0.091451938721704
  19    2.085398355269e-05
  20    -0.011489899155598
  21    -0.003253471832071
  22    -0.070831522029051
  23     0.053989504911008
  24     0.050703735991601
  25     -0.11559047522587
  26     0.052930698707557
  27     0.042124553582053
  28     0.010951663702307
  29    -0.042451904390599
  30    0.0053159461528954
  31     -0.07471667962429
  32     0.058354753235366
  33     0.017497717689647
  34     -0.11116342827835
  35     0.040502215085781
  36     0.073767393554437
  37    -0.038090186675015
  38      0.10237701078474
  39     0.092117912582681
  40    -0.092161942478731
  41     -0.10085260359147
  42    -0.033196527208713
  43    -0.073880319950908
  44    -0.052660271266152
  45    -0.032026561443715
  46    0.0061108007008936
  47    0.0071051138474599
  48    -0.0032321176935379
  49     0.092825590497945
  50    -0.054454085115638
  51    -0.076609988466818
  52     0.062919236699769
  53    -0.069001722088982
  54     -0.10994917339271
  55    -0.020374515241629
  56    -0.010911616198979
  57       0.1389456149945