[Molden Format]
made by pyscf v[2.0.1]
[Atoms] (AU)
C   1   6    -4.12961850001203    -2.83585530335105     1.25236118699788
N   2   7    -5.28461910734620    -4.81916066560458     2.39246886274435
C   3   6    -4.67215887037466    -2.09228586785719    -1.26703302062901
C   4   6    -6.47851027832391    -3.51116783122562    -2.63972062888244
C   5   6    -7.66431342148849    -5.59604597267452    -1.46340013141093
C   6   6    -6.99829834614678    -6.16472125533988     1.06145538471595
H   7   1    -7.84727670486888    -7.75643757006103     2.04052626930535
H   8   1    -9.01406920322033    -6.76686358767129    -2.46849254473560
H   9   1    -6.91777711597906    -3.02133192247711    -4.58309607812391
H   10   1    -3.77695781064570    -0.40651599419031    -2.06690684600428
H   11   1    -2.82948692631127    -1.75592217658911     2.41503219267166
Fe   12   26    -8.09309227915230    -2.24809378682758     0.68987475739047
[GTO]
1 0
 s    6 1.00
             3047.5249  0.0018347001629433
             457.36951    0.01403730124668
             103.94869   0.068842606114048
             29.210155    0.23218442062076
              9.286663    0.46794134155879
              3.163927    0.36231203217765
 s    3 1.00
             7.8682724   -0.11933240861517
             1.8812885   -0.16085421161283
             0.5442493     1.1434564825515
 s    1 1.00
             0.1687144                   1
 p    3 1.00
             7.8682724   0.068999095584993
             1.8812885    0.31642397975315
             0.5442493    0.74430825237435
 p    1 1.00
             0.1687144                   1

2 0
 s    6 1.00
              4173.511  0.0018347994430301
              627.4579   0.013994995751693
              142.9021   0.068586979179805
              40.23433    0.23224092950117
              12.82021    0.46906985760962
              4.390437    0.36045489058067
 s    3 1.00
             11.626358   -0.11496102288211
               2.71628   -0.16911803366165
              0.772218     1.1458522280731
 s    1 1.00
             0.2120313                   1
 p    3 1.00
             11.626358   0.067580023248036
               2.71628    0.32390711142648
              0.772218    0.74089525487354
 p    1 1.00
             0.2120313                   1

3 0
 s    6 1.00
             3047.5249  0.0018347001629433
             457.36951    0.01403730124668
             103.94869   0.068842606114048
             29.210155    0.23218442062076
              9.286663    0.46794134155879
              3.163927    0.36231203217765
 s    3 1.00
             7.8682724   -0.11933240861517
             1.8812885   -0.16085421161283
             0.5442493     1.1434564825515
 s    1 1.00
             0.1687144                   1
 p    3 1.00
             7.8682724   0.068999095584993
             1.8812885    0.31642397975315
             0.5442493    0.74430825237435
 p    1 1.00
             0.1687144                   1

4 0
 s    6 1.00
             3047.5249  0.0018347001629433
             457.36951    0.01403730124668
             103.94869   0.068842606114048
             29.210155    0.23218442062076
              9.286663    0.46794134155879
              3.163927    0.36231203217765
 s    3 1.00
             7.8682724   -0.11933240861517
             1.8812885   -0.16085421161283
             0.5442493     1.1434564825515
 s    1 1.00
             0.1687144                   1
 p    3 1.00
             7.8682724   0.068999095584993
             1.8812885    0.31642397975315
             0.5442493    0.74430825237435
 p    1 1.00
             0.1687144                   1

5 0
 s    6 1.00
             3047.5249  0.0018347001629433
             457.36951    0.01403730124668
             103.94869   0.068842606114048
             29.210155    0.23218442062076
              9.286663    0.46794134155879
              3.163927    0.36231203217765
 s    3 1.00
             7.8682724   -0.11933240861517
             1.8812885   -0.16085421161283
             0.5442493     1.1434564825515
 s    1 1.00
             0.1687144                   1
 p    3 1.00
             7.8682724   0.068999095584993
             1.8812885    0.31642397975315
             0.5442493    0.74430825237435
 p    1 1.00
             0.1687144                   1

6 0
 s    6 1.00
             3047.5249  0.0018347001629433
             457.36951    0.01403730124668
             103.94869   0.068842606114048
             29.210155    0.23218442062076
              9.286663    0.46794134155879
              3.163927    0.36231203217765
 s    3 1.00
             7.8682724   -0.11933240861517
             1.8812885   -0.16085421161283
             0.5442493     1.1434564825515
 s    1 1.00
             0.1687144                   1
 p    3 1.00
             7.8682724   0.068999095584993
             1.8812885    0.31642397975315
             0.5442493    0.74430825237435
 p    1 1.00
             0.1687144                   1

7 0
 s    3 1.00
             18.731137    0.03349459952309
             2.8253937    0.23472694665786
             0.6401217    0.81375731841339
 s    1 1.00
             0.1612778                   1

8 0
 s    3 1.00
             18.731137    0.03349459952309
             2.8253937    0.23472694665786
             0.6401217    0.81375731841339
 s    1 1.00
             0.1612778                   1

9 0
 s    3 1.00
             18.731137    0.03349459952309
             2.8253937    0.23472694665786
             0.6401217    0.81375731841339
 s    1 1.00
             0.1612778                   1

10 0
 s    3 1.00
             18.731137    0.03349459952309
             2.8253937    0.23472694665786
             0.6401217    0.81375731841339
 s    1 1.00
             0.1612778                   1

11 0
 s    3 1.00
             18.731137    0.03349459952309
             2.8253937    0.23472694665786
             0.6401217    0.81375731841339
 s    1 1.00
             0.1612778                   1

12 0
 s    6 1.00
              61132.62  0.0017661109761772
              9179.342   0.013530379817491
              2090.857   0.066731279099873
              589.2479    0.23148229687757
              188.7543    0.47970579352933
              64.44629    0.35019759527624
 s    6 1.00
               1259.98   0.002438014026839
              299.8761   0.032240480354921
              96.84917    0.12657240139338
               36.3102  -0.031399020345658
              14.72996   -0.62075930683366
              6.066075   -0.45029140495706
 s    6 1.00
              50.43485  -0.0038732559842369
              16.83929   0.071965979707118
              7.192086    0.25565909895954
               3.05342   -0.28828369882676
              1.273643   -0.73428219701167
              0.504091   -0.20493529916597
 s    3 1.00
              1.950316   0.056948690305124
              0.736721    0.28829150154463
              0.114177    -1.1381590060981
 s    1 1.00
              0.041148                   1
 p    6 1.00
               1259.98  0.0040280186654072
              299.8761   0.031446467387857
              96.84917    0.13683168863389
               36.3102    0.34872357103281
              14.72996    0.46179306164054
              6.066075    0.20430578302906
 p    6 1.00
              50.43485  -0.0070171278804837
              16.83929  -0.028776599509875
              7.192086   0.061813828947182
               3.05342     0.3954945932639
              1.273643    0.49890589150259
              0.504091    0.17912509694913
 p    3 1.00
              1.950316   -0.45937961634956
              0.736721    0.28521391015091
              0.114177    0.90764853230368
 p    1 1.00
              0.041148                   1
 d    3 1.00
              23.14994   0.088769354792419
              6.122368    0.38963192103518
              1.846601    0.70148163787111
 d    1 1.00
              0.504361                   1

[5d]
[7f]
[9g]

[MO]
 Sym= A
 Ene=               0
 Spin= Alpha
 Occup=    1.00000
   1    -0.00082328480580348
   2    -0.0079241012329184
   3    0.0077733877991151
   4    0.0027214514342316
   5    -0.00070331158906606
   6    -0.00033641185186249
   7     -0.04150418477504
   8    0.0046985147660668
   9    -0.0055953630720044
  10    -0.0038763768987533
  11    0.0027227334408606
  12    0.0044841388422152
  13    0.0025502639138261
  14    -0.002011102438586
  15     0.010349119779128
  16    -0.013684664999421
  17      0.01213012441567
  18    -0.00042608071154103
  19    -0.0032809256959559
  20    -0.0053812415973402
  21     0.011484207677858
  22    0.0061292503513655
  23    0.0019206100354741
  24    -0.0017163826615284
  25    -0.037177517313684
  26    -0.0016813959948481
  27     0.021796187468183
  28    -0.0011842393514502
  29    -0.0085512137569261
  30     0.010619403932327
  31    0.0018255279678482
  32    -0.0024668408474636
  33    -0.0041368480659292
  34    -0.017974356453082
  35     0.013891766517747
  36     0.041003553453165
  37    -0.0030000280820754
  38    -0.0057566353480995
  39    0.0093479333402023
  40    0.0001277661929359
  41    -0.0048265360911929
  42    -0.0021949376843697
  43    -0.0036788055552875
  44     0.034134606027196
  45     0.022308773489007
  46    -0.00081343472977287
  47    -0.0067166655650516
  48    0.0075514202655812
  49    -0.00031320340822561
  50    -0.0054048864406232
  51    0.00058201705722302
  52    -0.0099727980522213
  53     0.037216920563368
  54    -0.0022657001190513
  55    -1.207249499881e-05
  56    -0.00060600375438188
  57    0.00092702313262293
  58    0.00024390766271606
  59    -7.936593203428e-06
  60    -0.00030740265383672
  61    0.0023845919285278
  62    0.00099109874498995
  63    -0.0030175533859054
  64    -0.002774485178079
  65      0.41541922011394
  66      0.71121877731406
  67     -0.54822573835289
  68    -0.079310836290086
  69     0.064091868281202
  70    -0.00012679695953386
  71    0.00014059880633716
  72    3.6168569637122e-05
  73    -0.0069197510256862
  74    0.0055830020037803
  75    0.0047094057874003
  76    -0.0048665753854704
  77     0.003562782836246
  78    0.0053448652392064
  79    0.0065969769679812
  80    -0.0055750319204678
  81    -0.0018195834098761
  82    0.0011051780157505
  83     0.002518286590773
  84    0.0022644780030386
  85    0.0012744249624006
  86    -0.0010720210754715
  87    0.0015469240276538
  88    0.0033329838207759
  89    0.00064471415799198
  90    0.00070326381147733
  91    0.00071689501729136
 Sym= A
 Ene=               1
 Spin= Alpha
 Occup=    1.00000
   1    0.0016190907101361
   2    5.4578245881418e-05
   3    -0.012153722546402
   4    -0.0059031195188646
   5    -0.0075443426535013
   6    -0.0030916996196903
   7     0.021303682404311
   8    -0.0037594135632786
   9    -0.010451598386368
  10    0.0021800683774109
  11      0.00753803307666
  12    -0.0070330948470719
  13    -0.0015647173742934
  14    0.0037428558176342
  15    -0.0046810315671054
  16     0.021782559382688
  17    -0.019268467858095
  18    0.0087900603691726
  19    -0.00093986522074005
  20    -0.0011853937191519
  21    0.0075232081768095
  22    0.0026296312444197
  23    -0.0026563443334186
  24    0.0012477291619073
  25    -0.019606745815052
  26    -0.002730608437494
  27    -0.005564121070678
  28    -0.0039162852470101
  29    0.00063294989067867
  30     0.019546516708936
  31    0.00035564740545391
  32    -0.004416762762977
  33    0.00019936262406747
  34    -0.017135943555003
  35     0.012841124430399
  36     0.026815416140405
  37    -0.00058445324192798
  38    -0.0017143814350186
  39    0.0054527497578159
  40    0.0056689714474427
  41    0.0011536127746956
  42    -0.0013448275837601
  43    0.0029369513160505
  44     0.018964564626242
  45    -0.0064535046065925
  46     0.001478744006814
  47    0.0013559157972836
  48     -0.01117826150006
  49    0.0041633853983092
  50    0.0003957319910589
  51    0.00065042354559441
  52     0.007190898905064
  53    -0.025563364173921
  54    -0.0082485755723336
  55    -0.0017099504398092
  56    -0.0026014626897128
  57    -0.0021232833225012
  58    -0.00085326267306165
  59    0.0031685955034056
  60    0.0045078082531822
  61    0.00059250683783007
  62    0.00095673682999608
  63    -0.0077988874593532
  64     -0.00661017473096
  65    0.00010362044939295
  66    0.00069852220560725
  67    -0.00020035323868518
  68    0.0023173374929223
  69    -0.0013983776371276
  70      0.17002372287766
  71      -0.2163176485706
  72      0.65591280135504
  73     -0.16682904108768
  74      0.21201802551077
  75     -0.64245038731371
  76    -0.010644760356225
  77     0.013984664617374
  78    -0.041508768867387
  79    -0.0066212237222358
  80    0.0081860945759548
  81    -0.026245308907855
  82    5.9277262693135e-05
  83    0.0074233679359797
  84    0.0020093034922053
  85    0.0023775178601647
  86    -0.002857021345556
  87    -0.0021836691903229
  88    0.0082830026486667
  89    -0.00052418612174443
  90    0.0021252319612252
  91    -0.0041660904547129
 Sym= A
 Ene=               2
 Spin= Alpha
 Occup=    1.00000
   1    -0.0024614035569194
   2    -0.0037658625472175
   3     0.012599225881519
   4    -0.0003892556023383
   5    -0.0003583349906971
   6    -0.0036575809257814
   7    -0.028257258323053
   8     0.010943855731594
   9    -0.0091227761227923
  10    0.0003151747828532
  11    -0.00076025011602112
  12    -0.00042188284670697
  13    -0.0028215102017416
  14    -0.0031525545801375
  15    -0.00042582362411297
  16    0.0032783662999671
  17    0.0039197693240204
  18    3.1841096978234e-05
  19    -0.0027375295582638
  20    -0.0009234730018651
  21     0.016033906471743
  22    -0.002835299213353
  23    -0.0048482502892975
  24    0.0014112163846662
  25    -0.026425195885197
  26     0.002152603079376
  27     0.023075062147767
  28    -4.1324523149046e-05
  29    0.0003824794042002
  30    -0.0016107765267323
  31    0.0017348002541204
  32    0.0008633362467027
  33    7.9989552935014e-05
  34     0.013522846743598
  35     0.011691742785745
  36    -0.0022859425901635
  37    0.0032910025969446
  38    0.0014695743476987
  39    -0.016356047325143
  40    -0.002755152942703
  41    -0.0026797614651829
  42    -0.0011421454472564
  43    0.0073226845359733
  44    -0.027999894833897
  45    -0.024363377305668
  46    0.0020975743733024
  47    0.0045607414063881
  48    -0.012307120474721
  49    -0.0007672657829596
  50    -0.001196131808099
  51    0.0030147537758749
  52     0.013796826474349
  53    -0.028620716342021
  54    0.0087014183990616
  55    0.00079248888976065
  56    -0.00089248397523907
  57    -6.7608752470419e-05
  58    -0.0020053055430792
  59    -0.00019854346238343
  60    -0.00037853121746734
  61    -0.0016039410645278
  62    0.00087838185001412
  63    -0.00037629480019371
  64    0.0011097895574576
  65    2.8583293383949e-05
  66    -5.61727296259e-05
  67    -3.9533194971343e-07
  68    -0.00016182242392271
  69    3.6320317423256e-05
  70      -0.4537127173634
  71     -0.54423249049632
  72    -0.061907637117152
  73      0.44441184343112
  74      0.53289383025982
  75     0.060597310660262
  76      0.02890822940226
  77     0.034484971424069
  78    0.0040591555631128
  79     0.017308094075064
  80     0.020676275120842
  81    0.0024585340729829
  82    0.0014638667619964
  83    0.0030926536996812
  84    0.0032886713851521
  85    -0.0029404302385135
  86    -0.0012466007312511
  87     0.001172159120007
  88    0.0026247583765069
  89    0.0033321688601783
  90    -0.0053628681145157
  91    -0.0014706273064073
 Sym= A
 Ene=               3
 Spin= Alpha
 Occup=    1.00000
   1    0.0021390952570371
   2    0.0028600893369486
   3    -0.015623801877972
   4    -0.0017212508806381
   5    -0.0024112786487279
   6    -0.0080190220717898
   7     0.031845683257425
   8    -0.0029336869474619
   9    0.0037884921904698
  10    0.0022483782630425
  11    -0.0052310469960532
  12    -0.013540045283212
  13    0.0012062450451453
  14    0.00049247467145697
  15    -0.0027360835141239
  16     0.016388871959181
  17     -0.01513316633678
  18     0.007996163229073
  19    0.0022222399294839
  20    0.0043217931647402
  21    -0.018130537536791
  22    -0.0046084117399805
  23    -0.015132818746772
  24    0.0038204135162087
  25     0.029771352986956
  26    -0.0027548720210341
  27    -0.016501020561237
  28     0.001996715958188
  29    0.0074652522405406
  30    -0.016806445450033
  31     0.006515614784897
  32    -0.0061317552039049
  33     0.013603660085242
  34     0.016064997130882
  35    -0.013374689956302
  36    -0.028361799239403
  37    0.0020312642355254
  38    0.0031128186359943
  39    -0.016164292457445
  40     0.013813090086313
  41    0.0082673323761583
  42    0.0060024812341477
  43     0.007155974163215
  44    -0.024434376959708
  45    -0.014107950895012
  46    0.0015343417288731
  47    0.0034318562833877
  48    -0.013220994180612
  49    0.00085985414439372
  50    -0.00077065899479191
  51    -0.0067433053262097
  52    0.0052418615066529
  53      -0.0311316223792
  54    0.0021426434156387
  55    -0.00072144472895563
  56    -0.0035289549027614
  57     -0.01128919565761
  58    -0.010669230530231
  59    -0.0087355879892523
  60    -0.0091837513181662
  61    -0.0099258354372133
  62    -0.010110282488265
  63    -0.0039721253785282
  64    -0.0059021910111595
  65    -0.0003099136094397
  66    -0.0050286935441996
  67    -0.0064962595959936
  68    -0.019471859469257
  69    0.0037090143673097
  70      0.52239662019162
  71     -0.40499052759052
  72     -0.26950332565693
  73     -0.50643140925506
  74       0.3923262234595
  75      0.26083163816432
  76    -0.027854130535841
  77     0.021765424611201
  78     0.012279435936081
  79    -0.022755815166373
  80     0.017409578323591
  81     0.012256592917342
  82    0.0021186582245794
  83    0.00059413226866366
  84    0.0046605835294689
  85    0.0022385538086902
  86    -0.001762321204967
  87    0.0012939530814301
  88    -0.0021197853770445
  89    0.0056433924403241
  90    0.0023678540532805
  91    -0.0031565119289166
 Sym= A
 Ene=               4
 Spin= Alpha
 Occup=    1.00000
   1     -0.21539014864196
   2     0.032509822907323
   3      0.01395221409087
   4     0.056567739171775
   5     0.051812014045158
   6      0.05143929773207
   7     0.053809384058009
   8     0.056096064214569
   9     0.018256941716236
  10      0.49985167939371
  11     -0.12157685314284
  12     -0.10864127692905
  13    -0.025375461610798
  14     0.033872124501426
  15     -0.10496054339373
  16    -0.024229312022453
  17     0.026256039583318
  18    -0.091986960019925
  19      0.35619995766222
  20    -0.053029589103335
  21    -0.045443703680416
  22    0.00042952151057751
  23    -0.091254310927096
  24    -0.011508369427327
  25     0.010894665685186
  26    -0.083235517447956
  27    -0.0026632842296204
  28     -0.36993853555344
  29     0.032250382635856
  30     0.016690388878833
  31     0.033717547488073
  32    -0.039302791434493
  33     -0.07220524408017
  34     0.039267639042723
  35    -0.032596036859203
  36    -0.070700015890972
  37      0.38143168530491
  38    -0.057579399210551
  39    -0.050281007577905
  40      0.11754060046655
  41     0.034793669732058
  42    -0.00051164018551927
  43      0.10220210151308
  44     0.011649657386099
  45     0.007547912395025
  46     -0.23845173059355
  47     0.038555387673644
  48     0.017734237213653
  49    -0.041234196751421
  50    -0.096080248031027
  51     0.042871025161686
  52    -0.039135694547299
  53    -0.084636879512888
  54     0.012299175829011
  55      0.12361737542829
  56     0.074477339511202
  57     -0.11273248431641
  58    -0.075062609628869
  59     0.072778570575397
  60     0.044498042427034
  61    -0.086635787881568
  62    -0.058810954822825
  63      0.10321659083719
  64     0.061383421260017
  65     0.012584799326143
  66    0.0088512491964147
  67    -0.015824706235024
  68     0.046809647700458
  69    -0.031699985453728
  70    -0.0022296288029669
  71    0.0036813210224373
  72    0.00015715740366118
  73     0.010232618061544
  74    -0.010288117483159
  75    -0.010014426160472
  76    -0.008618560743688
  77     0.011731916784692
  78      0.02781953212301
  79    -0.0036928342842193
  80    0.0067817294394363
  81    0.0056403079437087
  82    0.0063347524314672
  83     0.034802782163686
  84      0.01140173497849
  85     0.013166179312073
  86    -0.015369315157962
  87    0.0029694834648538
  88     0.033231509377774
  89    0.0038255006454399
  90     0.011511459407475
  91    -0.016662786627022
 Sym= A
 Ene=               5
 Spin= Alpha
 Occup=    1.00000
   1     -0.47281147475021
   2     0.038455227695883
   3     0.040987310464647
   4     0.028525646096065
   5     0.051618405346455
   6     0.021135462566401
   7     0.019790275874703
   8     0.034276840477047
   9     0.036171890353435
  10    0.00061302725508126
  11    0.0047408003761678
  12    0.0049657751669993
  13     0.015493382391722
  14    0.0079099192535271
  15     0.012279991441908
  16     0.019929147241904
  17      0.01754333500182
  18    0.0097436484708462
  19      0.46711494377803
  20     -0.03333196840917
  21      -0.0363885464555
  22     0.011217387293441
  23    -0.046309017476796
  24     0.077755661481011
  25    0.0049471603349039
  26    -0.045033229326521
  27     0.056330342643043
  28     -0.02193945266985
  29       0.0042315452252
  30    0.0062000860803764
  31    -0.058957157770408
  32     -0.04903291525714
  33    -0.015340321319697
  34     -0.04816142678504
  35    -0.037839137562181
  36    -0.010203324028259
  37     -0.43110243646303
  38     0.028649727186537
  39      0.02935227670038
  40    -0.030488335108208
  41    0.0024592215649142
  42    -0.059580682868818
  43    -0.029890302500466
  44    0.0043783253364461
  45    -0.056557050524203
  46      0.47224784902544
  47     -0.04550134618797
  48     -0.04811742717282
  49      0.05076753597696
  50     0.042448411635019
  51    -0.039823002376855
  52     0.045010235119482
  53     0.030713284068654
  54    -0.037966562109879
  55     -0.09417195321995
  56     -0.06654696560688
  57     0.067181276782549
  58     0.045333780820802
  59     0.015249474691436
  60     0.010493203327702
  61    -0.083090675052489
  62    -0.057547299664542
  63     0.077337709656863
  64     0.054288153513598
  65    -0.00041483844015283
  66    -8.3647492144603e-05
  67    -0.00044859666532642
  68    0.00077015947582784
  69    -0.00054948346090998
  70    0.00050145440126445
  71    0.00090426425377614
  72    -0.00042087340262815
  73    0.00082530849093772
  74    -0.00030659127601904
  75    0.00071510897863477
  76    0.0020622060591046
  77    0.0041956738972092
  78    -0.001167749099718
  79    0.0016849907103982
  80    0.0029449688160283
  81    -0.00059957230836218
  82     0.061929632682269
  83      0.10756161594918
  84     0.095252871579707
  85     0.052082236401203
  86    -0.027982802924406
  87     0.047448707856648
  88     0.089212235663581
  89     0.081456090937716
  90     0.044396273490751
  91    -0.020475546217496
 Sym= A
 Ene=               6
 Spin= Alpha
 Occup=    1.00000
   1      -0.2122486250758
   2    -0.00081022992521393
   3    -0.0060614809161697
   4    -0.0079373445182572
   5     0.074383835024594
   6     -0.13740366215263
   7    0.0016776831855109
   8     0.050084728429691
   9    -0.075690105578789
  10        0.613838304123
  11    -0.078244566448269
  12    -0.078079309662853
  13    0.0089897370755537
  14    -0.0067185347351907
  15      0.04576849727341
  16    0.00039977373010377
  17    -0.0018477807963123
  18     0.010757309799803
  19     -0.25831917333078
  20     0.028304500850598
  21     0.019742073853498
  22     0.072316821343169
  23     0.012376927312908
  24      0.12114837180307
  25      0.04212768928839
  26     0.013413428145565
  27     0.051101351502108
  28       0.5137941265558
  29     -0.04871052633437
  30    -0.033969483155913
  31    0.0038278727420016
  32    -0.012737201867162
  33     -0.03560748605897
  34     0.014259508646956
  35     -0.01591903941019
  36    0.00030126402991637
  37     -0.27713998904352
  38     0.024208045214337
  39     0.016649693924357
  40    -0.0002025447265311
  41    -0.069799600182453
  42       0.1082023455779
  43    -0.0050327084520131
  44      -0.0412904758308
  45     0.044899787498216
  46     -0.19196059095803
  47    0.0011014782798566
  48    -0.0044754722683876
  49    -0.069889144646647
  50    -0.0079449969630815
  51       -0.133587924385
  52    -0.044800373548332
  53    -0.013019350913415
  54     -0.07223142327713
  55    -0.015023365822616
  56    -0.012051952794035
  57     0.010287403954771
  58     0.008388421349105
  59    -0.011219854569314
  60     -0.01250040359468
  61     0.017830238079276
  62     0.013659066041929
  63    -0.026656885924892
  64    -0.019664765806563
  65    0.0018316905176534
  66    0.00067594257423613
  67    -0.0012437015345982
  68     0.005808625551326
  69    -0.0082564086733424
  70    -0.00066531674325013
  71    0.00068499617730754
  72    0.00075323349539725
  73    0.0021288824470765
  74    -0.0025015109283461
  75    -0.0055087356804208
  76    -0.0012493005424588
  77    0.0033361831125783
  78    0.0089772858538682
  79    -0.006160967303683
  80    0.0058627501810999
  81    -0.0033251203507777
  82     -0.00797509863143
  83    0.0084561496808644
  84    0.0030682745734098
  85    0.0033412484700374
  86    0.00090468538417641
  87    -0.026920851548412
  88    0.0072431831654977
  89    0.0046413180528788
  90    0.0029305087207828
  91     0.010400402165447
 Sym= A
 Ene=               7
 Spin= Alpha
 Occup=    1.00000
   1     -0.41029387117074
   2      0.05991049212524
   3     0.054576928535989
   4    0.0092523914485073
   5    -0.00010173922432999
   6     0.023979932338183
   7     0.008395578824037
   8    -0.012669077439397
   9     0.037067726877434
  10     -0.43132630136047
  11     0.078428334578995
  12     0.076634522933279
  13    -0.022023107846121
  14    0.0024206709127997
  15    -0.041664972718447
  16    -0.0069680927849615
  17    0.0054766240848731
  18    -0.017885627787307
  19      0.27776016602311
  20    -0.032289179286358
  21    -0.026227737391852
  22     0.027723307308711
  23    -0.0072904852051555
  24      0.06551970419705
  25     0.020239182593618
  26    -0.0083172785860607
  27     0.060820003884623
  28      0.48939323101846
  29    -0.070800461115784
  30    -0.056263823589941
  31    0.0027434716932173
  32     0.019308982238963
  33     -0.04881331907976
  34     0.001948383291111
  35    0.0028286631126993
  36    -0.010803454098859
  37      0.28764094245476
  38    -0.020014661581659
  39    -0.018708878171247
  40    -0.016828258708446
  41    -0.052268670993529
  42     0.067387123543021
  43    -0.0070206547575116
  44    -0.032280443953706
  45     0.054000020827489
  46     -0.39553089248452
  47     0.046104042122771
  48     0.042243735080209
  49     0.022138787467206
  50     0.046405433009969
  51    0.0092063037564289
  52     0.017672046736233
  53     0.031544297291496
  54     0.024058764496495
  55    0.0074755963318613
  56     0.013813033768319
  57    -0.017168431741397
  58     -0.01417493360866
  59      -0.0124784234756
  60    -0.022172535445206
  61    -0.046858922328734
  62    -0.033324186914475
  63     0.059515666643604
  64     0.048493075178187
  65    -0.00051334275656458
  66    0.00018057539501084
  67    0.0010353588645699
  68    -0.0035344669539875
  69    0.0059805461645537
  70    0.0017384099971992
  71    -0.0022349409426598
  72    0.0044964151001344
  73    -0.0064566769336094
  74    0.0078029769573312
  75    -0.012687719689828
  76     0.010165827371595
  77    -0.015595600521037
  78     0.039206325078369
  79     0.011362991719756
  80    -0.010366306699748
  81     0.027909301702055
  82    -0.032339072713137
  83    -0.037809870808677
  84    -0.043593656404688
  85     -0.02289131618563
  86     0.010461257190914
  87    -0.042175459535087
  88    -0.010096198548684
  89    -0.047627906660826
  90    -0.019334078049584
  91    0.0011355535233948
 Sym= A
 Ene=               8
 Spin= Alpha
 Occup=    1.00000
   1      0.49071250064735
   2      -0.0638597920543
   3    -0.052411210267929
   4     0.019074981465796
   5    -0.012855991144771
   6         0.07957214875
   7    0.00020567778353306
   8    -0.014136006080149
   9     0.048746421400387
  10     0.011697541719918
  11    -0.0024162846054613
  12    -0.0031835396731906
  13    -0.015964640917892
  14    -0.019220297240665
  15    -0.00089159443146652
  16    -0.015620578012504
  17    -0.018814172192757
  18    -0.00044957691809558
  19      0.52310903632518
  20    -0.083011778186564
  21    -0.064007806295665
  22    0.0098481835503215
  23     0.054369777975298
  24    -0.056916562921075
  25    -0.0093516127616971
  26     0.022782102667203
  27    -0.031312904288864
  28     0.041860273523939
  29    -0.0050439498528853
  30    -0.0050271161930877
  31    -0.055606543014322
  32    -0.058617770017755
  33    -0.0047587469136441
  34    -0.043987208007037
  35    -0.044940871281354
  36    -0.0031308027387863
  37     -0.45846037850702
  38     0.073081018270312
  39     0.053882792807272
  40     0.042113680370826
  41     0.015750089644966
  42     0.064281682623592
  43     0.015355923921206
  44    -0.0046377435054634
  45     0.034280448992875
  46     -0.43552974363089
  47     0.055558276227567
  48     0.042780405686033
  49    -0.0090087970419771
  50      0.02616904672051
  51    -0.078967404913745
  52    -0.011651474123895
  53    0.0036403234054385
  54     -0.04770227087337
  55     0.009172332104711
  56     0.015631373555176
  57    0.0045959893931131
  58     0.015210996991786