[Molden Format]
made by pyscf v[2.0.1]
[Atoms] (AU)
C   1   6    -4.12961850001203    -2.83585530335105     1.25236118699788
N   2   7    -5.28461910734620    -4.81916066560458     2.39246886274435
C   3   6    -4.67215887037466    -2.09228586785719    -1.26703302062901
C   4   6    -6.47851027832391    -3.51116783122562    -2.63972062888244
C   5   6    -7.66431342148849    -5.59604597267452    -1.46340013141093
C   6   6    -6.99829834614678    -6.16472125533988     1.06145538471595
H   7   1    -7.84727670486888    -7.75643757006103     2.04052626930535
H   8   1    -9.01406920322033    -6.76686358767129    -2.46849254473560
H   9   1    -6.91777711597906    -3.02133192247711    -4.58309607812391
H   10   1    -3.77695781064570    -0.40651599419031    -2.06690684600428
H   11   1    -2.82948692631127    -1.75592217658911     2.41503219267166
Fe   12   26    -8.09309227915230    -2.24809378682758     0.68987475739047
[GTO]
1 0
 s    8 1.00
                  6665  0.00069158396281299
                  1000  0.0053257961529341
                   228   0.027060721042034
                 64.71    0.10165684614077
                 21.06     0.2745748236174
                 7.495    0.44829431892377
                 2.797    0.28490261071525
                0.5215   0.015194859206082
 s    8 1.00
                  6665  -0.00029326965268655
                  1000  -0.0023180354739745
                   228  -0.011499786038565
                 64.71  -0.046826727009787
                 21.06   -0.12846616875047
                 7.495   -0.30126627246289
                 2.797   -0.25563070233011
                0.5215      1.093793361012
 s    1 1.00
                0.1596                   1
 p    3 1.00
                 9.439   0.056979251590039
                 2.002    0.31320721150073
                0.5456    0.76037674173753
 p    1 1.00
                0.1517                   1
 d    1 1.00
                  0.55                   1

2 0
 s    8 1.00
                  9046  0.00069961741342552
                  1357  0.0053860546299287
                 309.3   0.027391021189057
                 87.73    0.10315059198201
                 28.56    0.27857066331743
                 10.21    0.44829484945412
                 3.838    0.27808592839527
                0.7466   0.015431561233271
 s    8 1.00
                  9046  -0.00030499009595337
                  1357  -0.0024080263785077
                 309.3   -0.01194444872518
                 87.73  -0.048925992909017
                 28.56   -0.13447272472496
                 10.21   -0.31511257770011
                 3.838   -0.24285783254964
                0.7466     1.0943822068542
 s    1 1.00
                0.2248                   1
 p    3 1.00
                 13.55   0.058905676772132
                 2.917    0.32046110671427
                0.7973    0.75304206179207
 p    1 1.00
                0.2185                   1
 d    1 1.00
                 0.817                   1

3 0
 s    8 1.00
                  6665  0.00069158396281299
                  1000  0.0053257961529341
                   228   0.027060721042034
                 64.71    0.10165684614077
                 21.06     0.2745748236174
                 7.495    0.44829431892377
                 2.797    0.28490261071525
                0.5215   0.015194859206082
 s    8 1.00
                  6665  -0.00029326965268655
                  1000  -0.0023180354739745
                   228  -0.011499786038565
                 64.71  -0.046826727009787
                 21.06   -0.12846616875047
                 7.495   -0.30126627246289
                 2.797   -0.25563070233011
                0.5215      1.093793361012
 s    1 1.00
                0.1596                   1
 p    3 1.00
                 9.439   0.056979251590039
                 2.002    0.31320721150073
                0.5456    0.76037674173753
 p    1 1.00
                0.1517                   1
 d    1 1.00
                  0.55                   1

4 0
 s    8 1.00
                  6665  0.00069158396281299
                  1000  0.0053257961529341
                   228   0.027060721042034
                 64.71    0.10165684614077
                 21.06     0.2745748236174
                 7.495    0.44829431892377
                 2.797    0.28490261071525
                0.5215   0.015194859206082
 s    8 1.00
                  6665  -0.00029326965268655
                  1000  -0.0023180354739745
                   228  -0.011499786038565
                 64.71  -0.046826727009787
                 21.06   -0.12846616875047
                 7.495   -0.30126627246289
                 2.797   -0.25563070233011
                0.5215      1.093793361012
 s    1 1.00
                0.1596                   1
 p    3 1.00
                 9.439   0.056979251590039
                 2.002    0.31320721150073
                0.5456    0.76037674173753
 p    1 1.00
                0.1517                   1
 d    1 1.00
                  0.55                   1

5 0
 s    8 1.00
                  6665  0.00069158396281299
                  1000  0.0053257961529341
                   228   0.027060721042034
                 64.71    0.10165684614077
                 21.06     0.2745748236174
                 7.495    0.44829431892377
                 2.797    0.28490261071525
                0.5215   0.015194859206082
 s    8 1.00
                  6665  -0.00029326965268655
                  1000  -0.0023180354739745
                   228  -0.011499786038565
                 64.71  -0.046826727009787
                 21.06   -0.12846616875047
                 7.495   -0.30126627246289
                 2.797   -0.25563070233011
                0.5215      1.093793361012
 s    1 1.00
                0.1596                   1
 p    3 1.00
                 9.439   0.056979251590039
                 2.002    0.31320721150073
                0.5456    0.76037674173753
 p    1 1.00
                0.1517                   1
 d    1 1.00
                  0.55                   1

6 0
 s    8 1.00
                  6665  0.00069158396281299
                  1000  0.0053257961529341
                   228   0.027060721042034
                 64.71    0.10165684614077
                 21.06     0.2745748236174
                 7.495    0.44829431892377
                 2.797    0.28490261071525
                0.5215   0.015194859206082
 s    8 1.00
                  6665  -0.00029326965268655
                  1000  -0.0023180354739745
                   228  -0.011499786038565
                 64.71  -0.046826727009787
                 21.06   -0.12846616875047
                 7.495   -0.30126627246289
                 2.797   -0.25563070233011
                0.5215      1.093793361012
 s    1 1.00
                0.1596                   1
 p    3 1.00
                 9.439   0.056979251590039
                 2.002    0.31320721150073
                0.5456    0.76037674173753
 p    1 1.00
                0.1517                   1
 d    1 1.00
                  0.55                   1

7 0
 s    3 1.00
                 13.01   0.033498726389998
                 1.962    0.23480080117413
                0.4446     0.8136829578829
 s    1 1.00
                 0.122                   1
 p    1 1.00
                 0.727                   1

8 0
 s    3 1.00
                 13.01   0.033498726389998
                 1.962    0.23480080117413
                0.4446     0.8136829578829
 s    1 1.00
                 0.122                   1
 p    1 1.00
                 0.727                   1

9 0
 s    3 1.00
                 13.01   0.033498726389998
                 1.962    0.23480080117413
                0.4446     0.8136829578829
 s    1 1.00
                 0.122                   1
 p    1 1.00
                 0.727                   1

10 0
 s    3 1.00
                 13.01   0.033498726389998
                 1.962    0.23480080117413
                0.4446     0.8136829578829
 s    1 1.00
                 0.122                   1
 p    1 1.00
                 0.727                   1

11 0
 s    3 1.00
                 13.01   0.033498726389998
                 1.962    0.23480080117413
                0.4446     0.8136829578829
 s    1 1.00
                 0.122                   1
 p    1 1.00
                 0.727                   1

12 0
 s   19 1.00
               4316265  8.0488023199039e-06
              646342.4  6.2583054711947e-05
              147089.7  0.00032902387219861
              41661.52  0.0013873548827733
              13590.77  0.0050232555755522
               4905.75   0.016101398639487
              1912.746   0.045900336121579
              792.6043    0.11361539039989
              344.8065    0.22838688070209
              155.8999    0.32211587278232
              72.23091    0.23836607985889
              32.72506   0.074046663743311
              15.66762   0.092141962214321
              7.503483   0.093397892108199
              3.312223   0.015739648670054
              1.558471  -0.00041866816462398
              0.683914  5.3763175457196e-05
              0.146757  -3.8166536775059e-05
              0.070583  4.3196026350084e-05
 s   19 1.00
               4316265  -4.1559369962002e-06
              646342.4  -3.2313877789452e-05
              147089.7  -0.00016995180465104
              41661.52  -0.00071713396588372
              13590.77  -0.0026036143474475
               4905.75  -0.0083990746356235
              1912.746  -0.024340990410105
              792.6043   -0.06251922420585
              344.8065   -0.13659234113955
              155.8999   -0.23126975377185
              72.23091   -0.23837242471164
              32.72506   0.031238242190359
              15.66762    0.50867971876342
              7.503483    0.49876745931891
              3.312223   0.090335150398436
              1.558471  -0.0060053124295769
              0.683914  0.00023124445387536
              0.146757  -0.00056436569092716
              0.070583  0.00049922395745117
 s   19 1.00
               4316265  9.5392794968425e-07
              646342.4  7.4201288995743e-06
              147089.7  3.9012973126954e-05
              41661.52  0.00016483791324274
              13590.77  0.00059904395703174
               4905.75  0.0019438370854879
              1912.746   0.005691474006023
              792.6043   0.015024474939216
              344.8065   0.034550270877518
              155.8999   0.065006594024135
              72.23091    0.07721942584146
              32.72506  -0.018748066959575
              15.66762   -0.30114268504749
              7.503483   -0.45580542340238
              3.312223    0.12874214182054
              1.558471    0.71886675886813
              0.683914    0.40547615588353
              0.146757    0.02169842334627
              0.070583  -0.0083497819778808
 s   19 1.00
               4316265  -2.7855316684837e-07
              646342.4  -2.1659942913938e-06
              147089.7  -1.1393815969693e-05
              41661.52  -4.8110671166032e-05
              13590.77  -0.00017498931033188
               4905.75  -0.00056730298734717
              1912.746  -0.0016634190856823
              792.6043  -0.0043867862458281
              344.8065  -0.010118228343349
              155.8999  -0.019039595468327
              72.23091  -0.022840460969647
              32.72506  0.0056966075590623
              15.66762   0.092272032737637
              7.503483    0.14828220074088
              3.312223  -0.054130717799492
              1.558471   -0.29363940203754
              0.683914   -0.33284949014195
              0.146757    0.36880606827045
              0.070583    0.77615453677882
 s   19 1.00
               4316265  -4.0457736469034e-07
              646342.4  -3.2182147037811e-06
              147089.7  -1.6378172028258e-05
              41661.52  -7.2229167603371e-05
              13590.77  -0.00024863317185672
               4905.75  -0.00086224981539081
              1912.746  -0.0023285468621802
              792.6043  -0.0067893875672321
              344.8065    -0.0137857032153
              155.8999  -0.030900463570667
              72.23091  -0.026550287703751
              32.72506  -0.0098488093433088
              15.66762    0.18182680231062
              7.503483    0.15435236850623
              3.312223   0.055554043395676
              1.558471   -0.96380941837406
              0.683914    0.26103022908272
              0.146757     1.8507028943296
              0.070583   -0.94179895310717
 s    1 1.00
              0.031449                   1
 p   15 1.00
              17745.69  4.0999986375771e-05
              4200.721  0.00036899987738194
              1364.429   0.002128999292537
              522.0806  0.0093689968866974
              221.4595   0.033096989001924
              100.9096   0.094430968620741
              48.40115    0.20807693085637
              23.98536    0.33233288956632
               12.1825    0.33298688934899
              6.242298    0.15684294788134
              3.110944   0.021548992839304
              1.509958  -0.0020949993038351
              0.710845  -0.0017389994221333
               0.27319  -0.00029999990031052
              0.104233  2.899999036335e-05
 p   15 1.00
              17745.69  -1.5001690667838e-05
              4200.721  -0.0001300146524546
              1364.429  -0.00075108464610309
              522.0806  -0.0033293752155489
              221.4595  -0.011913342615686
              100.9096  -0.034936937339972
              48.40115  -0.079998015655313
              23.98536   -0.13465117498367
               12.1825    -0.1386136215454
              6.242298   0.030281412669387
              3.110944    0.33325355717162
              1.509958    0.45620441354709
              0.710845    0.28508312843719
               0.27319   0.046149200945115
              0.104233  -0.0032493661986537
 p   15 1.00
              17745.69  4.2059051436175e-06
              4200.721  4.0657083054969e-05
              1364.429  0.00023132478289896
              522.0806  0.0010290447918051
              221.4595  0.0036815689690465
              100.9096   0.010830205744815
              48.40115   0.024861105303923
              23.98536   0.042136159697141
               12.1825   0.043592804845214
              6.242298  -0.014086978294356
              3.110944   -0.12380221987076
              1.509958   -0.18200914312166
              0.710845   -0.10786324134483
               0.27319    0.29814399791561
              0.104233    0.80341340250219
 p   15 1.00
              17745.69  5.2179925883807e-06
              4200.721  4.3831137742398e-05
              1364.429  0.00025150724275995
              522.0806  0.0011323043916786
              221.4595  0.0039980259212173
              100.9096   0.011921025867415
              48.40115   0.026916492967903
              23.98536   0.046771998365209
               12.1825   0.046542406691321
              6.242298  -0.011664300632066
              3.110944   -0.14415643764068
              1.509958   -0.19649394690065
              0.710845    -0.1120814371999
               0.27319    0.46425836736896
              0.104233    0.66815247135846
 p    1 1.00
              0.038291                   1
 d    7 1.00
               113.344  0.0035858865538461
               33.6414   0.026192209321351
                12.331    0.10068824060359
               4.99478     0.2428579762288
                2.0728    0.36285413346948
              0.830753    0.36792211874346
              0.309178    0.24020462334533
 d    7 1.00
               113.344  -0.0050113538596978
               33.6414   -0.03664085513561
                12.331   -0.14483843267146
               4.99478   -0.35331590629798
                2.0728   -0.40650711182833
              0.830753   0.073571570070304
              0.309178    0.72607174312111
 d    1 1.00
               0.10013                   1
 f    2 1.00
                3.2243    0.42224911271107
                0.7758    0.77146820592821

[5d]
[7f]
[9g]

[MO]
 Sym= A
 Ene=               0
 Spin= Alpha
 Occup=    1.00000
   1     0.020169321865402
   2    -0.039203642246638
   3    0.0077987750251696
   4    0.0035962508584078
   5    -0.061150143824788
   6    -0.010305531656171
   7    -0.072105079895274
   8    -0.035376896936653
   9    -0.026537795480057
  10    -0.016323834922515
  11    -0.0034735032101791
  12    -0.0098504434924454
  13    -0.0033773741479636
  14    -0.0022913573329154
  15    -0.00051913560345238
  16     0.013757343974108
  17     0.015677951672673
  18     0.043393805117398
  19    -0.025753376813084
  20    -0.043357223593401
  21     0.015147995928279
  22    -0.0036514178209317
  23    -0.046271349424776
  24    0.0061575062451314
  25    -0.0028775667332131
  26    3.283139544799e-05
  27    0.00033745590282299
  28    0.00066366586919471
  29     0.010566098931476
  30    -0.029499626029455
  31     0.015870765869428
  32     0.015588479749206
  33     0.011330695684315
  34    -0.014431234331824
  35    -0.063723413855121
  36    -0.0026020454924098
  37     0.033964653793246
  38    -0.010725631259995
  39     -0.01953727982443
  40    -0.010081541420694
  41     0.010138931321923
  42    -0.0044170050649433
  43     0.019076535365845
  44    -0.049448334179086
  45    0.0064894526591019
  46    -0.0019944211842402
  47    0.00079127802641603
  48    -0.001776864407448
  49     -0.03436233618882
  50      0.02748007871814
  51     0.080600736914018
  52    0.0037026960102185
  53    -0.015588944232519
  54     0.013120176093692
  55    0.0011907689443668
  56    -0.0033385866102839
  57     0.010335893386546
  58    -0.029113647654388
  59     0.012169975230626
  60    -0.0067840202735197
  61    -0.015201235406245
  62    -0.014429343892105
  63    -0.0072373443524072
  64     0.058407958103056
  65     0.035260688197366
  66    -0.006002837383021
  67    0.0060213819511054
  68     0.018510027723656
  69    -0.0062300461347999
  70    -0.0074795144316671
  71     0.019501848427974
  72     -0.04190354594153
  73    0.0047872335549006
  74     0.051250199988094
  75    0.0051717919800702
  76    -0.0093419672212056
  77     0.021911739842314
  78     0.077830081091211
  79    -0.019347132445959
  80    -0.015432470969519
  81    0.0082594850744932
  82    0.0047336355087872
  83    0.0037339429718765
  84    -0.0024522404910941
  85    -0.037193954356241
  86    -0.016101877991382
  87     0.001109665006384
  88      -0.0149395351357
  89    0.0061828402459546
  90     0.007790428274563
  91    0.0056832162501014
  92    0.00042465015953928
  93    -0.0025387290672251
  94    -0.0020411853877701
  95    -0.019187080773762
  96    -0.006479693392553
  97    -0.0012031291473597
  98    0.0011686679977933
  99    -0.0088726843093629
 100    0.0096962639309275
 101     0.007597633693105
 102    0.0030200117403027
 103    -0.00037337969470895
 104    -0.0020714042442513
 105    -0.040568341612713
 106    -0.016583895137606
 107     0.014972171426831
 108    0.00023901512562113
 109    0.0082975619864756
 110     0.048379069120054
 111     -0.33160441863426
 112      0.84035449504528
 113      -0.1688397006447
 114     0.021453883664902
 115        0.070648469656
 116    -0.044954595485757
 117     0.037740717440129
 118     0.019313767624853
 119      0.19586092562379
 120     -0.16482703545416
 121    -0.080798390780197
 122    -0.048071430584597
 123     0.039259559657799
 124     0.012347259818589
 125    -0.039938628966896
 126     0.032105612019144
 127    0.0096669128017763
 128    0.0045202121010631
 129    -0.0032923352292479
 130    -0.0087161028392936
 131    -0.0090397632682778
 132     -0.01400195822875
 133    -0.009325959863766
 134    -0.0094945035114676
 135     0.014906486796542
 136    0.0047208353051354
 137    0.0058175450150013
 138    -0.0022223983740469
 139    -0.00099968837751599
 140    0.0042116875854086
 141    -0.002904921581421
 142    -0.0024494285189705
 143    -0.0018178982451316
 144    -0.00059694853138858
 145    -0.002838632486526
 146    0.0010177790537306
 147    -0.0014383353253461
 148    0.0010660775584709
 149    -6.5452267568982e-05
 150    0.00072345706373126
 151    -0.002063174527639
 152    -0.0030664040647117
 Sym= A
 Ene=               1
 Spin= Alpha
 Occup=    1.00000
   1    -0.064856796967169
   2     0.024914261357638
   3    -0.023270965637571
   4    0.0026076605567357
   5    0.0018397180334035
   6    -0.013607196217108
   7     0.042491987415978
   8    -0.021177711870876
   9    0.0039136659358565
  10    0.0074467162837631
  11    -0.0017204382518922
  12    0.0016971494396266
  13     -0.01137982039696
  14    0.0068355372052712
  15    0.0018646471979922
  16    -0.00039241685175486
  17    -0.00011483281620679
  18    -0.0020764439960694
  19    -0.0023672328926797
  20    0.00029912791495158
  21    -0.012016854868488
  22    -0.014509231930195
  23    -0.00036677282354977
  24    0.00016864737860683
  25     0.001167544759702
  26    0.0013518228811201
  27    0.00014504896741095
  28    -6.4058503396164e-05
  29    -0.072172983030729
  30     0.028736008763242
  31    -0.024997288369044
  32    0.0067041569268252
  33    -0.0089511871378201
  34    0.0069805552599383
  35      0.04078614254361
  36    -0.015734436197781
  37    -0.033030043380028
  38    0.0023669033781692
  39     0.016333447337243
  40    -0.0010561820949774
  41    -0.012236680028735
  42    0.0031116642817261
  43    0.00057820521842633
  44    -0.00057776464093169
  45    0.0012363943882942
  46    0.0025197100890247
  47    0.0039516393484573
  48    -0.00039500979904186
  49    -0.020624970973351
  50    -0.020376533614537
  51    0.00057073499339313
  52    0.00022874059796162
  53    -0.0040701105331572
  54    -0.0031997863264969
  55    0.0016210695986605
  56    -0.00017574414654328
  57     0.074265626233418
  58     -0.02939685742625
  59     0.024990447350057
  60    -0.009230159967188
  61    0.0033490984228144
  62    -0.0072117215863525
  63    -0.021880960079222
  64     0.037264622569411
  65     0.033021728629356
  66    -0.00079168553423797
  67    -0.0036639824015259
  68     0.014969952529972
  69    -0.0095758018756633
  70    -0.0062875031346911
  71     0.061095236720403
  72    -0.023386401086531
  73     0.022589297700664
  74    -0.00011677852085085
  75    0.0011991451929949
  76     0.013442471906884
  77    -0.026448945354188
  78     0.037954891424776
  79    -0.0037218226597626
  80    -0.0064320269470978
  81    0.0017645127384046
  82    -0.00021462376746513
  83    -0.0086501325782816
  84    -0.0089656745725434
  85     0.002102749993636
  86    0.0070685684818282
  87     0.002697402697118
  88    0.0021019317662131
  89    0.00030487996403402
  90    0.0033003419288034
  91    0.0079289483754934
  92    0.0024399724023106
  93    0.0019907637392195
  94    0.00019673960326819
  95    0.00057491980789008
  96    0.00063465571369761
  97    0.0011734433512668
  98    0.0012896328666764
  99    0.00016167048535942
 100    -0.0025108758055115
 101    -0.0080673853247802
 102    0.0014657493747256
 103    0.0028224808826274
 104    0.00055634906663975
 105    -0.0013465624066919
 106    -0.0072137872893146
 107    0.0014539446174363
 108    0.0033654428159046
 109    -3.0495619217584e-05
 110    -0.00030114790363075
 111    0.00089475748078679
 112    0.0021912806753295
 113    4.2307684929131e-05
 114    0.00053497658269042
 115    0.00052185077760517
 116      0.13906763460543
 117      0.15742479040181
 118     0.013937279670438
 119     -0.63129178754366
 120     -0.71430259922594
 121    -0.063403997925257
 122     0.030606723352089
 123      0.03446423062348
 124    0.0031211952459644
 125     0.016777611242111
 126     0.018594334678568
 127    0.0016505151902775
 128    -0.027555665513564
 129    -0.031309673216406
 130    -0.0027575591732577
 131    -0.00010669397180031
 132    -0.0028639429054386
 133    -0.005152748056276
 134     0.017310807340938
 135     0.002120759555709
 136    -0.00058199381439626
 137    -0.0020280278705071
 138    -0.0033592448448226
 139     0.010170470543522
 140    0.0016323514927736
 141    -0.00058433801794609
 142    -0.0025599169079031
 143    -0.0043731686475743
 144     0.012245862369642
 145    0.0020177841665501
 146    -0.0040107187548839
 147    -0.0012315885807453
 148    0.00081516374829045
 149    -0.0015633471572729
 150    0.0033075043212298
 151    0.00079489151879688
 152    0.00088729817457034
 Sym= A
 Ene=               2
 Spin= Alpha
 Occup=    1.00000
   1    -0.036337598598985
   2     0.016682240194799
   3    -0.013443221021599
   4    -0.00069814727892906
   5    0.00048725616525248
   6    0.0013307967653436
   7     0.033642145651274
   8    0.0051061472973648
   9    -0.015489103046818
  10    0.0062612345993197
  11    0.00044351066375842
  12    -0.00081936378032102
  13    -0.0094733815045751
  14     0.006149174835627
  15      0.03068029810052
  16    -0.0021722528112947
  17     -0.01254184849624
  18    -0.0060736404702767
  19    0.0047692581031331
  20    -0.010966130108037
  21     0.026599737511561
  22    -0.023950875661724
  23    0.0060486359291966
  24    0.0026657110895828
  25    -0.0018482502209169
  26     0.001815444995353
  27    -0.00031848364271383
  28    0.0031024606411966
  29     0.059885448002815
  30    -0.022450090437495
  31     0.011830436217565
  32    0.00060562223572223
  33    0.0022514645111338
  34    0.0094473267705157
  35    -0.035507105154004
  36    0.0031107799753258
  37    -0.0040269926995637
  38    -0.0021344292603491
  39    -0.0048675143241255
  40    0.0034195094710111
  41    0.0084810712560653
  42     -0.00181642492853
  43     0.068748221116897
  44    -0.028120674521279
  45     0.027490369235156
  46    -0.0072045221200778
  47    0.0065054064431637
  48    -0.0055920433932655
  49    -0.035371051582892
  50     0.030326020899929
  51     0.037225130740433
  52     0.010545318683254
  53    -0.015234031190287
  54     0.011988620249843
  55    0.0020839996432307
  56    -0.008781381964407
  57     0.055020472532883
  58    -0.020962964992355
  59    0.0094592492974512
  60    -0.0016909615241886
  61    -0.0020018921485926
  62    0.0095647583736231
  63    -0.0055583343247009
  64     0.031607467666555
  65    -0.0039627360085475
  66    -0.0017695913269831
  67    -0.0037574138686298
  68    0.0031950130475332
  69    -0.0057463586562371
  70    -0.0034749903441217
  71    -0.038985262182689
  72     0.018031668683858
  73    -0.014028014694731
  74    0.00094552748770038
  75    0.0013755279064655
  76    0.00065174683281667
  77    0.0025583557471602
  78    -0.033986610947777
  79    -0.016699173628057
  80    0.0063684650009589
  81    0.0012636947326429
  82    -0.00031881617155598
  83    0.0070915490442757
  84    0.0086473370855776
  85    0.0028703483274606
  86    -0.0029185614345091
  87    -0.00065568096060753
  88    0.00036174685719929
  89    0.0011134757460372
  90    -0.0052522138219774
  91    -4.7131534339991e-06
  92    0.00057188333838236
  93    -0.0010467896211186
  94    0.0020572379964811
  95     0.004749263615448
  96    0.0092854579318741
  97    0.0012186115665133
  98    -0.001283008454907
  99    0.0023538026230535
 100    -0.0049101508268367
 101    0.0010571599014921
 102    0.00097119709524148
 103    -0.00090330990045398
 104    0.0021587103892645
 105    0.0040686652688426
 106    -0.0024669289211639
 107    -0.00086959528013075
 108    0.00051420224251904
 109    0.0010902425416174
 110    0.0016385543481429
 111    0.0010661003153364
 112     0.008153141600281
 113    -0.0021246362814994
 114    -0.0011549027009629
 115    9.9568260326357e-05
 116     0.046928823331284
 117    -0.058657415474538
 118      0.19260918592507
 119     -0.21184089765924
 120      0.26645059502913
 121     -0.89725237959013
 122     0.010236431381154
 123    -0.012708046417248
 124     0.044482178487628
 125    0.0050174483960824
 126    -0.0063933457028729
 127     0.024674575826915
 128    -0.0093627066085474
 129     0.011900650274373
 130    -0.038235905178396
 131    -0.0073616136797197
 132     0.014477667700621
 133    -0.0069501867988202
 134    0.0011378759872745
 135    -0.0066155623238923
 136    -0.0066295439419858
 137    0.0065936463544308
 138    -0.0055611222570043
 139    -0.00030566532295908
 140    -0.0025844224101078
 141    -0.0096439853086604
 142    0.0095016704952695
 143    -0.0064599707183534
 144    0.00027995021055124
 145    -0.0050723584352865
 146    -5.799499338647e-05
 147    -0.0037733843746075
 148    -0.0032765163381124
 149    -0.0016302819624566
 150    -0.00064714775405243
 151    -0.0012374795164083
 152    0.0011485695567449
 Sym= A
 Ene=               3
 Spin= Alpha
 Occup=    1.00000
   1    -0.073867549638477
   2     0.015504076456852
   3    -0.011058881548374
   4    -0.008278236305217
   5    -0.0039839284867215
   6    -0.001334574732832
   7     0.010805768469379
   8    -0.013897036588402
   9    0.00096769292408517
  10     -0.01076153412185
  11    0.0032123624581414
  12    0.0027190593759012
  13     0.007217920818323
  14     0.001477956918042
  15     -0.02293048808523
  16    0.0089434443444792
  17    0.0023953042201789
  18    0.00056947574626615
  19    -0.00043247205491661
  20    -0.0054935365726402
  21    -0.00082287364760009
  22    0.00025843765475744
  23    -0.0065515013297088
  24    0.00070754680610079
  25    0.0016334540370223
  26    -0.0015714321177139
  27    0.00050865263055288
  28    -0.0038162857668896
  29     -0.12124751281083
  30     0.025725998198721
  31    -0.016668708872275
  32    -0.007199492764539
  33    0.0014602724123267
  34    0.0048832191688064
  35     0.012280681542078
  36    -0.0027034192338191
  37    -0.0043791917541831